# vtk DataFile Version 3.0
State and Gradient Output
ASCII
DATASET UNSTRUCTURED_GRID
POINTS 5185 double
26.3422 -13.287 0.0
9.34224 -13.287 0.0
25.128 -13.287 0.0
23.9137 -13.287 0.0
22.6994 -13.287 0.0
21.4851 -13.287 0.0
20.2708 -13.287 0.0
19.0565 -13.287 0.0
17.8422 -13.287 0.0
16.628 -13.287 0.0
15.4137 -13.287 0.0
14.1994 -13.287 0.0
12.9851 -13.287 0.0
11.7708 -13.287 0.0
10.5565 -13.287 0.0
26.3422 4.71301 0.0
26.3422 3.4273 0.0
26.3422 2.14158 0.0
26.3422 0.855867 0.0
26.3422 -0.429847 0.0
26.3422 -1.71556 0.0
26.3422 -3.00128 0.0
26.3422 -4.28699 0.0
26.3422 -5.5727 0.0
26.3422 -6.85842 0.0
26.3422 -8.14413 0.0
26.3422 -9.42985 0.0
26.3422 -10.7156 0.0
26.3422 -12.0013 0.0
9.34224 4.71301 0.0
10.5565 4.71301 0.0
11.7708 4.71301 0.0
12.9851 4.71301 0.0
14.1994 4.71301 0.0
15.4137 4.71301 0.0
16.628 4.71301 0.0
17.8422 4.71301 0.0
19.0565 4.71301 0.0
20.2708 4.71301 0.0
21.4851 4.71301 0.0
22.6994 4.71301 0.0
23.9137 4.71301 0.0
25.128 4.71301 0.0
-9.46175 16.7628 0.0
-8.85102 15.7279 0.0
-7.6439 15.8335 0.0
-6.56175 16.4977 0.0
-5.42188 17.0576 0.0
-4.22328 17.4744 0.0
-2.97506 17.7032 0.0
-1.70655 17.7179 0.0
-0.454966 17.5103 0.0
0.738524 17.0811 0.0
1.81399 16.41 0.0
2.73897 15.5415 0.0
3.54014 14.5565 0.0
4.26243 13.5117 0.0
4.94387 12.4397 0.0
5.59914 11.3515 0.0
6.24028 10.2549 0.0
6.87714 9.15575 0.0
7.50925 8.05391 0.0
8.13225 6.94689 0.0
8.7433 5.83323 0.0
-26.4617 16.7628 0.0
-25.2475 16.7628 0.0
-24.0332 16.7628 0.0
-22.8189 16.7628 0.0
-21.6046 16.7628 0.0
-20.3903 16.7628 0.0
-19.176 16.7628 0.0
-17.9617 16.7628 0.0
-16.7475 16.7628 0.0
-15.5332 16.7628 0.0
-14.3189 16.7628 0.0
-13.1046 16.7628 0.0
-11.8903 16.7628 0.0
-10.676 16.7628 0.0
-26.4617 -1.23721 0.0
-26.4617 0.048499 0.0
-26.4617 1.33421 0.0
-26.4617 2.61993 0.0
-26.4617 3.90564 0.0
-26.4617 5.19136 0.0
-26.4617 6.47707 0.0
-26.4617 7.76279 0.0
-26.4617 9.0485 0.0
-26.4617 10.3342 0.0
-26.4617 11.6199 0.0
-26.4617 12.9056 0.0
-26.4617 14.1914 0.0
-26.4617 15.4771 0.0
-9.46175 -1.23721 0.0
-10.676 -1.23721 0.0
-11.8903 -1.23721 0.0
-13.1046 -1.23721 0.0
-14.3189 -1.23721 0.0
-15.5332 -1.23721 0.0
-16.7475 -1.23721 0.0
-17.9617 -1.23721 0.0
-19.176 -1.23721 0.0
-20.3903 -1.23721 0.0
-21.6046 -1.23721 0.0
-22.8189 -1.23721 0.0
-24.0332 -1.23721 0.0
-25.2475 -1.23721 0.0
9.05766 -12.0481 0.0
8.75267 -10.814 0.0
8.42798 -9.58496 0.0
8.08442 -8.36107 0.0
7.72396 -7.14204 0.0
7.34847 -5.92756 0.0
6.95622 -4.7184 0.0
6.54291 -3.51628 0.0
6.10421 -2.3232 0.0
5.6359 -1.14144 0.0
5.13159 0.0253895 0.0
4.58028 1.1707 0.0
3.97071 2.28602 0.0
3.28533 3.35621 0.0
2.50068 4.35553 0.0
1.59183 5.24252 0.0
0.539943 5.9523 0.0
-0.647701 6.3944 0.0
-1.9114 6.4813 0.0
-3.15176 6.21815 0.0
-4.31192 5.70259 0.0
-5.37507 5.00773 0.0
-6.33833 4.17934 0.0
-7.20217 3.2476 0.0
-7.96214 2.2293 0.0
-8.61132 1.13702 0.0
-9.15568 -0.0113403 0.0
10.0745 -12.424 0.0
8.06031 4.78382 0.0
-9.98818 15.7072 0.0
-10.2592 -0.0939215 0.0
24.7005 -12.1158 0.0
23.374 -12.1212 0.0
22.1071 -12.1601 0.0
20.8744 -12.1763 0.0
19.6489 -12.1857 0.0
18.4265 -12.1929 0.0
17.2054 -12.1972 0.0
15.9817 -12.1971 0.0
14.749 -12.1943 0.0
13.4952 -12.1958 0.0
12.1715 -12.2215 0.0
11.14 -12.0311 0.0
25.3505 2.58576 0.0
25.2526 1.50647 0.0
25.2358 0.236711 0.0
25.2334 -1.05002 0.0
25.2374 -2.33768 0.0
25.238 -3.62427 0.0
25.2364 -4.91181 0.0
25.2329 -6.2005 0.0
25.2268 -7.49233 0.0
25.2284 -8.78521 0.0
25.2461 -10.0625 0.0
25.346 -11.1489 0.0
9.82767 3.62587 0.0
11.3352 3.82612 0.0
12.4004 3.72547 0.0
13.6036 3.68663 0.0
14.8192 3.66793 0.0
16.0357 3.65661 0.0
17.2519 3.64888 0.0
18.4673 3.64314 0.0
19.682 3.63724 0.0
20.8984 3.6277 0.0
22.1227 3.60819 0.0
23.3831 3.56371 0.0
24.7047 3.55089 0.0
-8.0595 14.8788 0.0
-6.80117 15.311 0.0
-5.58352 15.7576 0.0
-4.42328 16.1217 0.0
-3.21655 16.4859 0.0
-2.24023 16.8951 0.0
-1.19133 16.6467 0.0
-0.0188688 16.3493 0.0
0.811226 16.0037 0.0
1.89871 15.0879 0.0
2.89644 13.5175 0.0
3.56507 12.3722 0.0
4.21762 11.2937 0.0
4.83373 10.2556 0.0
5.60539 9.17707 0.0
6.32587 8.08799 0.0
6.95014 7.07318 0.0
7.48193 5.95768 0.0
-24.8213 15.5931 0.0
-23.4962 15.5996 0.0
-22.2309 15.6391 0.0
-20.9999 15.6556 0.0
-19.776 15.6652 0.0
-18.5545 15.6731 0.0
-17.3335 15.6801 0.0
-16.11 15.6865 0.0
-14.8782 15.6948 0.0
-13.6237 15.7134 0.0
-12.2921 15.7769 0.0
-11.3262 15.6216 0.0
-25.4661 0.884787 0.0
-25.3626 1.96152 0.0
-25.3369 3.23315 0.0
-25.3289 4.52878 0.0
-25.3358 5.82662 0.0
-25.3444 7.11822 0.0
-25.3504 8.40527 0.0
-25.3521 9.69054 0.0
-25.3485 10.9782 0.0
-25.3507 12.2674 0.0
-25.3679 13.5419 0.0
-25.467 14.6266 0.0
-11.616 -0.396941 0.0
-12.5392 -0.543933 0.0
-13.5322 -0.330796 0.0
-14.7598 -0.212933 0.0
-16.0191 -0.151092 0.0
-17.2813 -0.122981 0.0
-18.5379 -0.116475 0.0
-19.784 -0.123681 0.0
-21.0167 -0.13468 0.0
-22.2437 -0.131905 0.0
-23.5013 -0.0935111 0.0
-24.8221 -0.0792816 0.0
10.1289 -11.3604 0.0
9.55935 -10.0411 0.0
9.22618 -8.80754 0.0
8.9069 -7.53813 0.0
8.53044 -6.28192 0.0
8.13687 -5.04458 0.0
7.72372 -3.81206 0.0
7.27929 -2.57712 0.0
6.78522 -1.31702 0.0
6.42328 -0.123667 0.0
6.01704 1.12274 0.0
5.43735 2.4151 0.0
4.67498 3.61015 0.0
3.8663 4.63986 0.0
2.96296 5.50344 0.0
1.87609 6.3468 0.0
0.612639 7.03065 0.0
-0.815576 7.5734 0.0
-2.42225 7.42362 0.0
-3.81411 7.04145 0.0
-5.14356 6.30873 0.0
-6.39896 5.45414 0.0
-7.44882 4.48413 0.0
-8.35329 3.43723 0.0
-9.32901 2.45775 0.0
-9.745 1.02613 0.0
8.6168 3.63976 0.0
-9.32933 14.6367 0.0
24.0986 -10.8491 0.0
22.7239 -11.0281 0.0
21.4845 -11.0602 0.0
20.2478 -11.077 0.0
19.0153 -11.0932 0.0
17.7882 -11.1066 0.0
16.5625 -11.1115 0.0
15.3282 -11.1053 0.0
14.0718 -11.0933 0.0
12.7905 -11.0918 0.0
24.1108 2.30257 0.0
24.1339 0.916396 0.0
24.11 -0.378521 0.0
24.1321 -1.67504 0.0
24.1356 -2.9597 0.0
24.1328 -4.24784 0.0
24.1286 -5.53813 0.0
24.1197 -6.82915 0.0
24.094 -8.13609 0.0
24.1179 -9.44589 0.0
10.5764 2.59202 0.0
11.7114 2.74588 0.0
12.9945 2.66996 0.0
14.2206 2.63222 0.0
15.4404 2.60788 0.0
16.6595 2.59048 0.0
17.8774 2.57825 0.0
19.0925 2.56934 0.0
20.3062 2.55781 0.0
21.5229 2.53723 0.0
22.747 2.49465 0.0
-7.06442 13.9115 0.0
-5.59246 14.4563 0.0
-4.45733 14.8056 0.0
-3.45658 15.083 0.0
-2.15804 15.6103 0.0
-0.40831 15.571 0.0
0.172798 14.5688 0.0
1.52246 13.1755 0.0
2.21373 12.0778 0.0
2.87135 11.0087 0.0
3.48402 9.95871 0.0
4.00346 9.0371 0.0
4.87229 7.9163 0.0
5.74124 6.79169 0.0
6.37004 4.81456 0.0
-24.2221 14.3298 0.0
-22.8506 14.5106 0.0
-21.615 14.5438 0.0
-20.3824 14.5607 0.0
-19.1529 14.5767 0.0
-17.9269 14.5917 0.0
-16.7005 14.604 0.0
-15.4671 14.6148 0.0
-14.2162 14.6285 0.0
-12.9315 14.6543 0.0
-11.6172 14.6943 0.0
-24.222 1.16012 0.0
-24.2261 2.53905 0.0
-24.1789 3.84682 0.0
-24.1973 5.17237 0.0
-24.2195 6.47534 0.0
-24.2361 7.7655 0.0
-24.2456 9.04896 0.0
-24.2438 10.3304 0.0
-24.2205 11.6286 0.0
-24.2436 12.9315 0.0
-11.2684 0.649921 0.0
-12.5518 0.481802 0.0
-13.9177 0.76419 0.0
-15.2361 0.914774 0.0
-16.5549 0.990202 0.0
-17.8647 1.01598 0.0
-19.1579 1.009 0.0
-20.4232 0.977569 0.0
-21.6529 0.94739 0.0
-22.8668 0.966464 0.0
10.9224 -9.96188 0.0
10.546 -8.89627 0.0
10.3743 -7.92412 0.0
9.95534 -6.59751 0.0
9.55561 -5.33182 0.0
9.14782 -4.06896 0.0
8.71766 -2.79559 0.0
8.24221 -1.51116 0.0
7.64796 -0.142316 0.0
7.45609 0.759132 0.0
7.22556 2.28241 0.0
6.31303 3.79308 0.0
5.34441 4.98239 0.0
4.32811 5.92534 0.0
3.319 7.04463 0.0
1.9603 7.9552 0.0
0.204084 8.54719 0.0
-0.881323 9.10029 0.0
-1.9918 8.85908 0.0
-3.44355 8.46122 0.0
-5.08482 8.09174 0.0
-6.50987 7.05555 0.0
-7.88492 6.10183 0.0
-8.95152 4.9161 0.0
-9.80645 3.67431 0.0
7.21328 3.53462 0.0
9.47927 2.48802 0.0
-10.6549 14.5299 0.0
-8.5311 13.6221 0.0
23.1796 -10.0204 0.0
22.0971 -9.95663 0.0
20.8535 -9.96194 0.0
19.6059 -9.98318 0.0
18.3695 -10.012 0.0
17.1447 -10.031 0.0
15.9209 -10.0304 0.0
14.6761 -10.0043 0.0
11.4938 -11.0732 0.0
13.3845 -9.96802 0.0
23.2039 1.50017 0.0
22.8895 0.331137 0.0
23.0347 -1.03002 0.0
23.0402 -2.29388 0.0
23.031 -3.57889 0.0
23.0245 -4.87347 0.0
23.0228 -6.16512 0.0
23.0099 -7.44173 0.0
22.8581 -8.82121 0.0
11.2267 1.60616 0.0
12.4063 1.63377 0.0
13.6205 1.59937 0.0
14.8408 1.565 0.0
16.0629 1.53818 0.0
17.2857 1.51574 0.0
18.505 1.50394 0.0
19.7154 1.49704 0.0
20.9247 1.47919 0.0
22.138 1.45627 0.0
-6.2573 13.1988 0.0
-4.77098 13.5868 0.0
-3.55786 14.0636 0.0
-2.49728 14.7203 0.0
-1.19486 14.3572 0.0
0.0977605 13.2819 0.0
0.891932 12.0796 0.0
1.5987 11.0353 0.0
2.21256 10.0028 0.0
2.82549 8.83613 0.0
3.86235 8.01868 0.0
6.10545 6.05684 0.0
4.56214 6.92693 0.0
-23.3079 13.5065 0.0
-22.2309 13.4457 0.0
-20.995 13.4523 0.0
-19.7549 13.4721 0.0
-18.5228 13.4983 0.0
-17.2969 13.5186 0.0
-16.0686 13.5328 0.0
-14.829 13.5426 0.0
-13.567 13.551 0.0
-12.2723 13.5616 0.0
-23.3071 1.94566 0.0
-22.9472 3.09189 0.0
-23.0342 4.5217 0.0
-23.0844 5.84152 0.0
-23.1166 7.13438 0.0
-23.1382 8.41686 0.0
-23.1515 9.69022 0.0
-23.1435 10.95 0.0
-22.9916 12.3166 0.0
-10.9292 1.80596 0.0
-11.9509 1.47939 0.0
-13.0355 1.74889 0.0
-14.3879 1.9832 0.0
-15.7745 2.11663 0.0
-17.1507 2.17126 0.0
-18.5026 2.16979 0.0
-19.8318 2.13662 0.0
-21.0932 2.03681 0.0
-22.2713 1.97567 0.0
11.5115 -9.15745 0.0
11.362 -8.18565 0.0
10.9012 -7.02981 0.0
10.4923 -5.76734 0.0
10.0911 -4.49516 0.0
9.67755 -3.20915 0.0
9.24001 -1.89557 0.0
8.73828 -0.595483 0.0
8.37465 0.576503 0.0
7.92327 1.49192 0.0
5.23845 5.92963 0.0
1.36888 9.0414 0.0
0.219338 9.66743 0.0
-1.8412 9.84581 0.0
-2.96473 9.34832 0.0
-4.24254 9.07798 0.0
-5.51618 9.20675 0.0
-6.37549 8.16327 0.0
-7.55726 7.35551 0.0
-8.80774 6.76723 0.0
-10.6881 3.0386 0.0
-9.92564 5.74502 0.0
8.36115 2.42721 0.0
10.0814 1.52786 0.0
-10.9371 13.5825 0.0
-9.93029 13.4178 0.0
-7.44073 12.3751 0.0
21.479 -8.8463 0.0
20.2017 -8.84627 0.0
18.9417 -8.90629 0.0
17.7138 -8.94961 0.0
16.5051 -8.97371 0.0
15.2996 -8.95489 0.0
12.1186 -9.99951 0.0
14.0413 -8.87335 0.0
22.0651 -0.54149 0.0
21.9693 -1.62169 0.0
21.9356 -2.89705 0.0
21.9142 -4.20027 0.0
21.9132 -5.50925 0.0
21.9362 -6.79754 0.0
11.8578 0.611722 0.0
13.0207 0.574476 0.0
14.2339 0.525647 0.0
15.4604 0.491253 0.0
[...]
CELL_DATA 9784
SCALARS U_var0 double
LOOKUP_TABLE default
-4.00174
-3.94507
-4.28126
-4.07602
-4.61894
-4.60174
-4.93027
-4.71699
-4.41713
-4.31264
-4.2103
-4.31336
-4.35305
-4.14623
-4.05633
-4.1852
-4.11954
-4.39906
-4.41626
-4.31162
26.1398
25.5327
26.1398
25.9375
25.0454
25.2591
25.8662
25.3902
10.1113
10.4149
10.2935
10.2732
9.92627
10.187
10.0674
10.0602
9.54924
9.43194
9.58372
9.52163
9.86112
9.78259
9.67485
9.77285
9.68491
9.8367
9.65043
9.72401
9.98394
10.1662
9.90542
10.0185
0.436987
0.627157
0.482101
0.515509
0.339251
0.384318
0.236168
0.31999
-0.239698
-0.392533
-0.358701
-0.330258
-0.132255
0.0435369
-0.107167
-0.0652306
-0.316054
-0.222105
-0.19721
-0.245123
0.0140306
0.202838
-0.0760785
0.0469301
0.231335
0.128017
-0.0475818
0.103923
-19.1724
-19.4724
-18.8617
-19.1688
18.7352
19.0502
19.3464
19.044
25.9739
25.417
25.4258
25.6056
23.3515
23.0142
23.6214
23.329
22.3983
22.1021
21.7911
22.0972
21.1816
21.487
21.798
21.4889
20.2678
20.5696
19.9568
20.2647
16.0307
16.3269
15.7197
16.0258
17.2153
16.9266
17.5337
17.2252
17.5151
17.8334
18.1256
17.8247
16.6165
16.9052
16.2934
16.605
15.1005
14.7682
14.4934
14.7874
13.8796
13.5275
13.2725
13.5599
10.9514
10.7311
11.0347
10.9057
11.2132
11.6001
11.4748
11.4293
11.108
11.3696
11.1795
11.2191
11.2371
11.5406
11.1538
11.3105
25.5327
26.1398
26.1398
25.9375
25.0482
25.8669
25.2598
25.3916
21.8124
21.4936
21.2002
21.5021
25.6158
26.1606
26.1606
25.979
26.1578
25.6046
26.1578
25.9734
26.1574
25.603
26.1574
25.9726
25.9733
25.4189
25.4209
25.6043
19.9648
19.6538
19.3576
19.6587
25.4219
25.974
25.4216
25.6059
20.8756
20.5738
21.1809
20.8768
25.4044
25.0817
25.9026
25.4629
25.9707
25.413
25.4138
25.5991
25.6781
26.1762
26.1762
26.0101
8.45993
8.1985
8.35166
8.3367
8.76219
8.49678
8.62187
8.62695
8.87883
8.68271
8.78525
8.78226
9.02799
8.86182
8.91642
8.93541
9.24416
9.06074
9.13332
9.14607
8.9684
8.87481
9.04099
8.9614
8.52536
8.79076
8.73616
8.68409
8.47298
8.68378
8.58125
8.57934
7.57479
7.33787
7.3649
7.42585
7.60996
7.40008
7.47858
7.49621
7.01464
7.14518
6.96161
7.04048
6.66998
6.78705
6.61721
6.69143
6.7746
6.89269
6.72258
6.79664
6.9144
6.86137
6.74422
6.84
7.22306
7.35552
7.17166
7.25008
6.87771
6.99674
6.82643
6.90031
6.97939
7.09924
6.9288
7.0025
7.12208
7.07067
6.95158
7.04811
7.24242
7.21539
7.08484
7.18088
7.01903
6.96682
6.84866
6.94484
7.3735
7.295
7.18964
7.28605
7.21631
7.05873
7.11095
7.12866
10.9924
10.6887
10.7819
10.821
11.3792
11.597
11.2935
11.4232
10.9117
11.2079
11.1221
11.0806
-5.3703
-5.45818
-5.17002
-5.33283
-4.79251
-4.88054
-4.58858
-4.75388
-5.28941
-5.39896
-5.43976
-5.37605
-5.2775
-4.98918
-5.175
-5.14723
-5.43741
-5.38956
-5.28706
-5.37134
-5.24491
-5.04462
-4.95659
-5.08204
12.1179
11.8031
11.5853
11.8355
-6.87121
-6.93654
-6.61821
-6.80865
-6.19439
-6.26501
-5.84736
-6.10225
-6.7375
-6.8038
-6.48017
-6.67382
-6.74156
-6.48856
-6.41794
-6.54935
12.9907
12.6984
13.3
12.9964
-1.9546
-1.80816
-1.96669
-1.9098
-2.06036
-2.07248
-2.23124
-2.12136
-2.7476
-2.90589
-2.85648
-2.83667
-2.53438
-2.42913
-2.58781
-2.51712
-2.78591
-2.62358
-2.67699
-2.6955
-2.25199
-2.13156
-2.40771
-2.26375
-2.14837
-2.31926
-2.42453
-2.29739
14.815
15.1122
14.5051
14.8108
18.4341
18.142
18.7491
18.4417
15.7293
15.4183
15.121
15.4229
25.973
25.4198
25.4186
25.6038
18.1488
18.4613
18.7559
18.4553
25.9762
25.4314
25.423
25.6102
23.0591
22.7172
22.4289
22.7351
24.8551
24.2479
24.6434
24.5821
-25.6522
-26.2593
-26.2593
-26.057
4.07321
3.73344
3.89879
3.90181
4.40091
4.06228
4.22321
4.2288
4.7552
4.85654
4.69589
4.76921
4.38211
4.54631
4.6304
4.51961
4.57935
4.39037
4.63866
4.53612
4.2412
4.06678
4.40541
4.2378
-7.52396
-7.62481
-7.66837
-7.60571
-7.60882
-7.71141
-7.75513
-7.69179
-7.30439
-7.41821
-7.46003
-7.39421
-7.50429
-7.6487
-7.54611
-7.56636
-7.59423
-7.79255
-7.91305
-7.76661
-6.97352
-7.18022
-7.28386
-7.14586
-7.40464
-7.301
-7.45664
-7.38742
-7.50529
-7.55729
-7.7036
-7.58873
-6.62491
-6.61237
-6.75097
-6.66281
-6.90882
-6.89069
-7.02687
-6.9422
-6.65751
-6.64083
-6.78506
-6.69447
-6.67723
-6.80311
-6.82146
-6.76727
-7.18783
-7.16397
-7.29705
-7.21637
-7.46504
-7.43231
-7.56552
-7.4875
-7.24334
-7.21583
-7.35716
-7.27211
-7.24298
-7.35195
-7.38431
-7.32641
-6.79333
-6.70302
-6.86011
-6.78549
-6.89233
-6.95912
-7.09903
-6.98349
-6.96225
-7.08008
-7.1042
-7.04884
-7.01885
-7.13125
-7.15876
-7.10295
-6.71543
-6.84299
-6.87253
-6.81032
-6.93282
-7.07477
-6.96236
-6.98998
-5.79789
-5.61515
-5.52727
-5.64677
-5.6664
-5.48439
-5.53225
-5.56101
-5.62864
-5.52453
-5.48388
-5.54574
-5.91235
-5.79935
-5.76928
-5.82704
-5.71701
-5.58285
-5.68681
-5.66222
-6.19798
-6.02503
-6.0801
-6.10104
-6.19687
-6.08586
-6.05515
-6.11266
-6.47061
-6.33707
-6.33022
-6.37935
-6.25331
-6.13542
-6.24633
-6.21169
-5.85731
-5.97019
-6.001
-5.94283
-5.82927
-5.55865
-5.74066
-5.70953
-5.99291
-5.93784
-5.84922
-5.92666
-4.66418
-4.46025
-4.36722
-4.49722
-4.50156
-4.31398
-4.35664
-4.39073
-4.44362
-4.34037
-4.29088
-4.35834
-4.74414
-4.63484
-4.59318
-4.65744
-4.55015
-4.40523
-4.50833
-4.4879
-5.09395
-4.90813
-4.95329
-4.98513
-5.0445
-4.94083
-4.89561
-4.96037
-5.33663
-5.22691
-5.18991
-5.25121
-5.1435
-5.00284
-5.10633
-5.08423
-4.70029
-4.80942
-4.85482
-4.78818
-4.6957
-4.39874
-4.58633
-4.56026
-4.8549
-4.80974
-4.70037
-4.78833
-4.96067
-4.60324
-4.68354
-4.74915
-4.84501
-4.65036
-4.55304
-4.6828
-5.41892
-5.21326
-5.13076
-5.25431
-5.05232
-4.77518
-4.96983
-4.93244
1.54325
1.75716
1.7281
1.67617
1.53922
1.72407
1.74105
1.66812
1.21205
1.28587
0.986319
1.16141
1.78261
1.75233
1.4646
1.66651
1.67094
1.45702
1.3832
1.50372
3.52541
3.36807
3.45795
3.45056
3.73496
3.55455
3.64153
3.64376
3.88151
3.699
3.81195
3.79748
3.61559
3.54788
3.72854
3.63067
3.87852
3.7202
3.8044
3.80112
4.07947
3.89608
3.97771
3.98449
4.24547
4.0558
4.16506
4.15544
3.9678
3.89344
4.07705
3.97943
4.50016
4.14543
4.33042
4.32534
3.81681
3.72313
3.88168
3.80721
4.18899
4.00401
3.93445
4.04248
3.99776
4.18743
3.93288
4.03936
3.23818
3.06621
3.40354
3.23597
3.73286
3.65781
3.84287
3.74451
4.09186
4.01902
4.1797
4.09689
3.90686
3.81329
3.99616
3.90547
3.8188
3.92881
4.00157
3.91639
3.35172
3.31105
3.4824
3.38173
3.7329
3.66113
3.8238
3.73933
3.53495
3.42556
3.62805
3.52958
3.43272
3.5634
3.63503
3.54371
3.72934
3.8228
3.66028
3.73747
3.37564
3.541
3.61605
3.5109
3.54898
3.37764
3.61805
3.51489
6.47966
6.97032
6.69524
6.71507
6.07136
6.4791
6.29791
6.28279
5.64226
6.04571
5.85355
5.84718
6.25206
6.46764
6.0599
6.25986
5.80675
5.7114
5.84256
5.7869
6.12229
6.02196
5.92481
6.02302
5.94017
6.10184
5.90436
5.98212
6.57235
6.37972
6.66155
6.53787
6.38681
6.18562
6.47858
6.35034
6.152
6.25233
6.44496
6.2831
7.13086
6.892
6.92443
6.98243
7.16908
6.96265
7.04488
7.05887
6.57496
6.69943
6.51747
6.59729
6.23471
6.34522
6.17857
6.25286
6.34625
6.45901
6.29101
6.36545
6.47745
6.41996
6.30938
6.40226
6.79917
6.92721
6.74422
6.82353
6.45591
6.5704
6.40151
6.47597
6.56377
6.67965
6.51021
6.58457
6.69998
6.64504
6.53048
6.62517
6.80332
6.77089
6.64643
6.74021
6.58988
6.53374
6.42091
6.51484
6.94248
6.86025
6.75949
6.85408
6.78055
6.62365
6.67978
6.69466
7.98766
7.75203
7.77568
7.83846
8.02088
7.8089
7.88491
7.9049
7.42553
7.55957
7.37551
7.45354
7.07974
7.20037
7.0298
7.10332
7.17879
7.30016
7.12949
7.20283
7.32395
7.27393
7.15323
7.25037
7.62291
7.75836
7.57408
7.65178
7.27665
7.39873
7.22794
7.30112
7.37339
7.49613
7.32522
7.39826
7.52078
7.47195
7.34982
7.44752
7.65246
7.62881
7.49477
7.59201
7.42296
7.37353
7.25212
7.34954
7.77817
7.70215
7.59389
7.6914
7.62425
7.46657
7.51599
7.5356
12.3929
12.6853
12.0781
12.3854
-25.1657
-25.3788
-25.9859
-25.5102
-26.0942
-25.5387
-25.5473
-25.7268
-23.4728
-23.1342
-23.7413
-23.4494
-22.5185
-22.2245
-21.9114
-22.2181
-21.3058
-21.6082
-21.9214
-21.6118
-20.3895
-20.6943
-20.0824
-20.3887
-16.0595
-16.4237
-15.8166
-16.0999
-17.9558
-18.2522
-17.6417
-17.9499
-7.50523
-7.5212
-7.7543
-7.59357
-7.94679
-7.97775
-8.19688
-8.04047
-7.37063
-7.42816
-7.51952
-7.43943
-7.58377
-7.62733
-7.75409
-7.65506
-7.2705
-7.32032
-7.42565
-7.33882
-7.38656
-7.53545
-7.49189
-7.4713
-7.85213
-7.82118
-7.69442
-7.78924
-7.77943
-7.62172
-7.53036
-7.64383
-16.4202
-16.7389
-17.0319
-16.7303
-14.0006
-13.653
-13.3935
-13.6824
-12.0076
-11.5246
-11.6369
-11.723
-12.1016
-11.7309
-11.9007
-11.911
-9.64762
-9.54616
-9.69795
-9.63058
-9.92561
-9.84334
-9.99513
-9.92136
-9.83219
-9.73969
-9.87229
-9.81472
-9.72564
-9.77597
-9.85824
-9.78661
-10.3245
-10.2087
-10.5122
-10.3485
-10.0172
-9.9479
-10.1734
-10.0461
-10.1637
-9.93818
-9.97828
-10.0267
-10.2002
-10.0148
-10.0843
-10.0998
-26.2593
-26.2593
-25.6522
-26.057
-25.1663
-25.9861
-25.379
-25.5104
-21.9327
-21.6131
-21.3192
-21.6217
-25.729
-26.2785
-26.2785
-26.0953
-26.2742
-25.7118
-26.2742
-26.0868
-26.2729
-25.7065
-26.2729
-26.0841
-26.0853
-25.5188
-25.5223
-25.7088
-20.0855
-19.7784
-19.4784
-19.7808
-25.5292
-26.0878
-25.5249
-25.714
-20.9991
-20.6943
-21.3014
-20.9983
-25.5252
-25.2023
-26.0225
-25.5833
-26.091
-25.5344
-25.5355
-25.7203
-25.7986
-26.2959
-26.2959
-26.1301
-12.2008
-12.5253
-12.808
-12.5114
-17.3269
-17.6236
-17.0104
-17.3203
-13.0816
-12.7989
-13.2954
-13.0587
-14.2613
-13.8679
-14.4817
-14.2036
-15.7282
-15.4853
-15.0986
-15.4374
-26.0854
-25.523
-25.519
-25.7092
-18.2601
-18.5482
-18.8673
-18.5585
-26.091
-25.5415
-25.5286
-25.7204
-23.178
-22.8368
-22.5492
-22.8546
-24.9742
-24.3671
-24.7615
-24.7009
9.82798
9.96907
9.79386
9.86364
9.48342
9.62122
9.45042
9.51835
9.16056
9.2864
9.12401
9.19033
9.23149
9.35451
9.19569
9.26058
9.38453
9.35154
9.22567
9.32058
9.59305
9.70079
9.53391
9.60925
9.29199
9.38489
9.25682
9.31125
9.36976
9.48705
9.33499
9.39727
9.50644
9.4473
9.35436
9.43604
9.40915
9.28608
9.41419
9.3698
9.72365
9.68952
9.55173
9.65497
9.51252
9.6794
9.50748
9.56646
11.891
11.3753
11.5654
11.6106
11.9962
11.6705
11.7958
11.8208
14.823
14.5237
15.1336
14.8267
9.41512
9.19056
9.20698
9.27088
9.4435
9.23536
9.3041
9.32766
8.87088
9.00617
8.82927
8.90211
8.53812
8.66078
8.49661
8.56519
8.62037
8.74374
8.57946
8.64787
8.77101
8.7294
8.60668
8.70236
9.03371
9.17402
8.99472
9.06748
8.70143
8.82567
8.66115
8.72943
8.78072
8.9043
8.74108
8.80872
8.93252
8.89353
8.76924
8.8651
9.08703
9.07061
8.93532
9.03099
8.85339
8.81224
8.68882
8.78481
9.19787
9.12913
9.01858
9.11519
9.05565
8.90395
8.9451
8.96823
12.7
12.997
13.3016
12.9995
5.49995
5.85508
5.72435
5.69313
5.20832
5.57898
5.41987
5.40239
4.78483
4.6715
4.83183
4.76272
5.17471
5.02845
4.9248
5.04266
4.95291
5.15583
4.90592
5.00488
5.33282
5.55722
5.18656
5.35886
7.87426
8.04844
7.97106
7.9646
7.72307
7.89451
7.81679
7.81148
7.51551
7.69819
7.62358
7.61243
7.79134
7.8881
7.71673
7.79872
7.5707
7.73975
7.6617
7.6574
7.41628
7.58397
7.50563
7.50197
7.22149
7.39923
7.32252
7.31441
7.48879
7.57974
7.41209
7.49354
7.09036
7.32458
7.27678
7.23057
7.04202
7.22844
7.13123
7.1339
7.64083
7.73448
7.56549
7.64694
7.31743
7.39796
7.22021
7.31187
7.43868
7.54675
7.39088
7.45877
7.55766
7.48232
7.40179
7.48059
8.9065
9.12804
9.05515
9.0299
8.74218
8.97416
8.88741
8.86792
8.51999
8.70048
8.63311
8.61786
8.43497
8.59102
8.57506
8.53368
8.18268
8.35153
8.30859
8.28093
8.44552
8.55864
8.40258
8.46891
8.93107
8.69909
8.71505
8.78174
8.95885
8.74283
8.8102
8.83729
7.33432
7.42363
7.25606
7.338
7.01325
7.08917
6.91022
7.00421
7.14453
7.24556
7.09138
7.16049
7.25315
7.1749
7.09898
7.17568
6.63202
6.70888
6.4637
6.60153
6.93194
7.02115
6.78812
6.91373
6.80014
7.03317
6.98003
6.93778
6.74808
6.92797
6.82495
6.83367
6.02266
5.75545
5.93841
5.90551
6.37174
6.11574
6.29302
6.26017
6.43307
6.24087
6.35185
6.34193
6.60035
6.43661
6.49738
6.51144
6.787
6.61054
6.69306
6.69687
6.52464
6.44342
6.60716
6.52508
6.12173
6.37772
6.31695
6.27213
6.06448
6.2597
6.14872
6.15763
5.95047
6.14788
6.06805
6.05547
5.78036
5.98557
5.90558
5.89051
5.52142
5.74256
5.65493
5.63964
5.85546
5.97303
5.76784
5.86544
5.66954
5.83783
5.75762
5.75501
5.48172
5.67049
5.58995
5.58073
5.28463
5.48406
5.38338
5.38402
5.57989
5.66795
5.47921
5.57568
4.98723
5.27197
5.16298
5.14072
5.69761
5.82281
5.65454
5.72499
5.30239
5.41138
5.54489
5.41956
5.53197
5.33254
5.57504
5.47985
4.56669
4.38899
4.72539
4.56035
5.07263
4.98412
5.1767
5.07782
5.43726
5.35644
5.51826
5.43733
5.26688
5.1635
5.3484
5.25961
5.16375
5.26782
5.3486
5.26006
4.7485
4.66441
4.85451
4.75581
5.11111
5.03279
5.19328
5.1124
4.93779
4.8364
5.02074
4.93166
4.83796
4.94397
5.02225
4.93472
5.08285
5.18618
5.02573
5.09825
4.70832
4.86702
4.95553
4.84363
4.90888
4.71879
4.966
4.86456
3.90777
3.73569
4.07546
3.9063
4.41602
4.33471
4.52369
4.42481
4.7787
4.70175
4.86246
4.78099
4.60204
4.50206
4.68667
4.59695
4.50465
4.61231
4.6892
4.60205
4.07702
3.99814
4.18601
4.08706
4.43924
4.36378
4.5249
4.44266
4.25882
4.16102
4.34548
4.25514
4.16478
4.27376
4.34916
4.26257
4.42017
4.52009
4.35903
4.43309
4.04813
4.21582
4.29713
4.18703
4.24272
4.05485
4.30386
4.20048
5.97934
6.28926
6.19713
6.15524
5.7547
6.09019
5.9792
5.94136
5.32696
5.21753
5.36594
5.30348
5.68871
5.57101
5.46221
5.57397
5.47791
5.66543
5.43893
5.52743
5.8368
6.05459
5.7191
5.87016
4.16035
4.05837
4.21936
4.14602
4.54405
4.36753
4.28712
4.39957
4.33899
4.53692
4.27998
4.3853
5.06736
4.87684
5.25125
5.06515
4.68416
4.51442
4.88145
4.69335
4.51668
4.6932
4.88371
4.69787
2.5526
2.78278
2.65606
2.66381
2.35446
2.08048
2.35182
2.26226
2.58022
2.4794
2.47676
2.51212
3.31675
3.46063
3.36515
3.38092
3.12737
3.00203
3.17756
3.10232
3.30056
3.20218
3.25213
3.2517
2.88757
3.06108
2.95948
2.96947
2.70141
2.55527
2.7349
2.66386
2.8906
2.78548
2.81866
2.83168
2.71979
2.54015
2.64097
2.63364
2.92755
3.05289
2.87965
2.95337
2.71682
2.84354
2.79564
2.78533
5.80488
6.15131
5.97403
5.97674
5.42903
5.79001
5.60704
5.60869
5.06193
5.4423
5.25047
5.25156
5.62547
5.79461
5.43364
5.61791
-9.626
-9.85491
-9.684
-9.72164
-9.24652
-9.50677
-9.34825
-9.36718
-9.26765
-9.43548
-9.31864
-9.34059
-9.06106
-9.21642
-9.13101
-9.13616
-8.93079
-9.10264
-8.99826
-9.01057
-9.17692
-9.2279
-9.07254
-9.15912
-9.50133
-9.24107
-9.32649
-9.3563
-9.56875
-9.39391
-9.51075
-9.49114
5.27854
4.9938
5.18926
5.15386
5.66232
5.38166
5.57203
5.53867
5.74026
5.51912
5.64572
5.63503
5.92039
5.7386
5.80338
5.82079
6.13777
5.94036
6.02762
6.03525
5.84305
5.74852
5.93031
5.84063
5.39016
5.67082
5.60604
5.55568
5.32637
5.54225
5.41565
5.42809
2.4562
2.34295
2.37381
2.3911
2.50776
2.65424
2.54522
2.56918
2.39918
2.44408
2.48121
2.44149
1.97202
1.84955
1.83217
1.88471
1.95099
2.17952
2.06176
2.06422
1.8362
1.86526
1.97564
1.89237
2.03465
2.30863
2.1685
2.1706
1.93323
2.06708
1.90295
1.96776
2.24486
2.38499
2.34009
2.32332
2.19705
1.96891
2.13304
2.09967
2.31472
2.28351
2.21949
2.27257
-14.535
-14.866
-15.1605
-14.8538
-6.5792
-6.66951
-6.36483
-6.53785
-5.92857
-6.04997
-5.74582
-5.90812
-6.54977
-6.56645
-6.42084
-6.51235
-6.24301
-6.2602
-6.07005
-6.19109
-6.52152
-6.53424
-6.38811
-6.48129
-6.4955
-6.36657
-6.34937
-6.40381
-6.17427
-6.05287
-6.24302
-6.15672
-6.28619
-6.35494
-6.50056
-6.38056
-1.89896
-1.86983
-1.716
-1.82826
-1.79115
-1.60819
-1.4386
-1.61265
-1.46091
-1.25752
-1.03303
-1.25049
-2.22166
-1.99537
-1.84621
-2.02108
-1.80242
-1.44987
-1.65326
-1.63518
-14.8942
-14.6145
-15.2217
-14.9101
-11.1261
-10.8224
-10.9582
-10.9689
-11.6062
-11.7434
-11.4398
-11.5965
-11.1149
-11.4491
-11.2827
-11.2822
-11.3382
-10.857
-10.9821
-11.0591
-11.45
-11.094
-11.3045
-11.2829
-10.2066
-9.99
-10.0495
-10.082
-10.2668
-10.1097
-10.2308
-10.2024
-10.2138
-10.3449
-10.5173
-10.3587
-9.76684
-9.87174
-9.89793
-9.84551
-9.84676
-9.93928
-9.99855
-9.92819
-9.55008
-9.6633
-9.70187
-9.63842
-9.74473
-9.87582
-9.7833
-9.80129
-10.2239
-10.0928
-10.0336
-10.1168
-10.1955
-10.0051
-9.9789
-10.0598
-5.53828
-5.41262
-5.39961
-5.45017
-5.51307
-5.38613
-5.37044
-5.42321
-5.81443
-5.67047
-5.65874
-5.71455
-5.57626
-5.43759
-5.56453
-5.52612
-5.61313
-5.36977
-5.28272
-5.42187
-6.21909
-5.97677
-5.92181
-6.03922
-5.78913
-5.8441
-5.68841
-5.77388
-5.68969
-5.58896
-5.44633
-5.57499
-19.7732
-20.0764
-19.4617
-19.7704
-11.9527
-11.8156
-12.2772
-12.0152
-9.28401
-9.22645
-9.37863
-9.29658
-9.58104
-9.53548
-9.71237
-9.60963
-9.38244
-9.33466
-9.47449
-9.39753
-9.34949
-9.44476
-9.49032
-9.42819
-9.95777
-9.89826
-9.83958
-9.89854
-9.92277
-10.1448
-10.0237
-10.0304
-9.82577
-9.84301
-9.94396
-9.87091
-9.45476
-9.42121
-9.54658
-9.47465
-9.71177
-9.67763
-9.81667
-9.73536
-9.4966
-9.48245
-9.60799
-9.52962
-9.50699
-9.60021
-9.63435
-9.58052
-9.63426
-9.76559
-9.74835
-9.71606
-9.69304
-9.7734
-9.83208
-9.76617
-9.43963
-9.53268
-9.56641
-9.5129
-9.60172
-9.71581
-9.63545
-9.651
-10.4024
-10.3664
-10.6521
-10.4736
-11.0394
-10.981
-11.3737
-11.1314
-10.6638
-10.4913
-10.7995
-10.6515
-10.5171
-10.7668
-10.8253
-10.7031
9.83332
10.0085
9.98583
9.94256
9.77879
9.979
10.0289
9.9289
9.47842
9.64922
9.59542
9.57435
9.41876
9.56858
9.57468
9.52067
9.15499
9.31741
9.28458
9.25233
9.41055
9.52755
9.37772
9.43861
9.8936
9.69339
9.68729
9.75809
9.90949
9.70319
9.75699
9.78989
12.5277
12.9345
13.1896
12.8839
8.4739
8.65709
8.58128
8.57079
8.32417
8.50576
8.42962
8.41985
8.09281
8.28745
8.21315
8.19781
8.3881
8.49538
8.3138
8.39909
8.17455
8.35398
8.27741
8.26863
8.02451
8.20154
8.12454
8.11686
7.80314
7.99257
7.91843
7.90471
8.09001
8.19292
8.01588
8.0996
7.63521
7.88815
7.84208
7.78848
7.5875
7.79438
7.69732
7.69306
8.23897
8.34441
8.16493
8.24943
7.89412
7.98649
7.79706
7.89256
8.01258
8.13292
7.96651
8.03734
8.14835
8.07431
7.98195
8.0682
8.80789
8.73241
8.62378
8.7214
8.58543
8.51052
8.38832
8.49476
8.95799
8.88298
8.77383
8.87162
8.79658
8.61258
8.68749
8.69888
8.21825
8.47967
8.43063
8.37618
8.16803
8.38042
8.27882
8.27576
9.10737
9.03281
8.92364
9.02128
8.88513
8.81045
8.68901
8.79486
9.25634
9.18192
9.07287
9.17039
9.09585
8.91216
8.98684
8.99828
8.57856
8.38146
8.48305
8.48102
8.72873
8.55825
8.60729
8.63142
8.94655
8.76246
8.83742
8.84881
8.66925
8.57374
8.74422
8.6624
-15.1927
-15.5202
-15.8086
-15.5071
-9.12347
-8.95377
-9.08371
-9.05436
-9.33223
-9.19399
-9.29321
-9.27413
-9.45158
-9.28376
-9.38304
-9.37279
-9.21384
-9.17193
-9.31313
-9.23297
-9.49089
-9.37329
-9.43345
-9.43371
-9.59168
-9.47768
-9.49373
-9.5222
-9.76914
-9.62011
-9.67665
-9.68863
-9.55011
-9.48915
-9.60665
-9.54863
-9.85763
-9.62872
-9.69487
-9.72707
-9.91084
-9.74808
-9.84158
-9.8335
-9.40568
-9.36371
-9.48482
-9.41807
-9.67532
-9.61977
-9.76881
-9.68797
-9.52957
-9.46103
-9.59572
-9.52878
-9.46457
-9.54371
-9.59926
-9.53585
-8.22178
-8.04625
-8.12306
-8.13036
-8.36234
-8.19716
-8.27621
-8.27857
-8.61976
-8.40645
-8.47291
-8.49971
-8.30244
-8.20372
-8.3689
-8.29169
-8.63037
-8.37291
-8.41263
-8.47197
-9.14077
-8.84617
-8.87065
-8.95253
-8.7235
-8.69902
-8.55217
-8.65823
-8.64584
-8.47451
-8.38838
-8.50291
-9.25725
-9.16551
-9.1019
-9.175
-9.12696
-9.03665
-8.97
-9.04461
-9.45821
-9.35314
-9.28798
-9.36644
-9.26623
-9.11054
-9.20106
-9.19261
-8.99029
-8.90184
-8.83241
-8.90826
-8.84695
-8.76112
-8.68862
-8.76565
-9.18344
-9.08228
-9.01026
-9.09199
-8.99585
-8.83773
-8.92383
-8.91913
-9.65008
-9.55257
-9.46285
-9.55517
-9.60424
-9.417
-9.36918
-9.46347
-9.1343
-8.97713
-9.06582
-9.05909
-9.30493
-9.15594
-9.25711
-9.23933
-9.46332
-9.2931
-9.3736
-9.37667
-9.21353
-9.14505
-9.29403
-9.21754
24.6406
24.2472
24.8544
24.5807
23.685
23.9549
24.3483
23.9961
22.7131
23.0504
22.417
22.7268
26.1573
25.6027
26.1573
25.9724
26.1579
25.605
26.1579
25.9736
26.1563
25.5986
26.1563
25.9704
26.1581
25.6057
26.1581
25.9739
25.9714
25.4168
25.4137
25.6006
14.5133
14.2034
13.9055
14.2074
25.973
25.4201
25.4184
25.6038
9.08306
8.86152
8.87524
8.93994
9.10983
8.90201
8.96861
8.99348
8.53845
8.67681
8.49632
8.57053
8.19911
8.32414
8.15534
8.22621
8.28539
8.40931
8.24216
8.3123
8.4366
8.39447
8.26939
8.36682
8.70428
8.83962
8.66261
8.7355
8.37059
8.49352
8.32792
8.39736
8.45484
8.57733
8.41274
8.48165
8.60428
8.56262
8.43965
8.53552
8.75527
8.74155
8.60319
8.7
8.52061
8.47894
8.35497
8.45151
8.86253
8.79593
8.68553
8.78133
8.72304
8.57096
8.61263
8.63554
25.6061
26.1582
26.1582
25.9741
19.6431
19.9426
19.3263
19.6373
16.3179