# vtk DataFile Version 3.0
State and Gradient Output
ASCII
DATASET UNSTRUCTURED_GRID
POINTS 1346 double
26.3422 -13.287 0.0
9.34224 -13.287 0.0
25.128 -13.287 0.0
23.9137 -13.287 0.0
22.6994 -13.287 0.0
21.4851 -13.287 0.0
20.2708 -13.287 0.0
19.0565 -13.287 0.0
17.8422 -13.287 0.0
16.628 -13.287 0.0
15.4137 -13.287 0.0
14.1994 -13.287 0.0
12.9851 -13.287 0.0
11.7708 -13.287 0.0
10.5565 -13.287 0.0
26.3422 4.71301 0.0
26.3422 3.4273 0.0
26.3422 2.14158 0.0
26.3422 0.855867 0.0
26.3422 -0.429847 0.0
26.3422 -1.71556 0.0
26.3422 -3.00128 0.0
26.3422 -4.28699 0.0
26.3422 -5.5727 0.0
26.3422 -6.85842 0.0
26.3422 -8.14413 0.0
26.3422 -9.42985 0.0
26.3422 -10.7156 0.0
26.3422 -12.0013 0.0
9.34224 4.71301 0.0
10.5565 4.71301 0.0
11.7708 4.71301 0.0
12.9851 4.71301 0.0
14.1994 4.71301 0.0
15.4137 4.71301 0.0
16.628 4.71301 0.0
17.8422 4.71301 0.0
19.0565 4.71301 0.0
20.2708 4.71301 0.0
21.4851 4.71301 0.0
22.6994 4.71301 0.0
23.9137 4.71301 0.0
25.128 4.71301 0.0
-9.46175 16.7628 0.0
-8.85102 15.7279 0.0
-7.6439 15.8335 0.0
-6.56175 16.4977 0.0
-5.42188 17.0576 0.0
-4.22328 17.4744 0.0
-2.97506 17.7032 0.0
-1.70655 17.7179 0.0
-0.454966 17.5103 0.0
0.738524 17.0811 0.0
1.81399 16.41 0.0
2.73897 15.5415 0.0
3.54014 14.5565 0.0
4.26243 13.5117 0.0
4.94387 12.4397 0.0
5.59914 11.3515 0.0
6.24028 10.2549 0.0
6.87714 9.15575 0.0
7.50925 8.05391 0.0
8.13225 6.94689 0.0
8.7433 5.83323 0.0
-26.4617 16.7628 0.0
-25.2475 16.7628 0.0
-24.0332 16.7628 0.0
-22.8189 16.7628 0.0
-21.6046 16.7628 0.0
-20.3903 16.7628 0.0
-19.176 16.7628 0.0
-17.9617 16.7628 0.0
-16.7475 16.7628 0.0
-15.5332 16.7628 0.0
-14.3189 16.7628 0.0
-13.1046 16.7628 0.0
-11.8903 16.7628 0.0
-10.676 16.7628 0.0
-26.4617 -1.23721 0.0
-26.4617 0.048499 0.0
-26.4617 1.33421 0.0
-26.4617 2.61993 0.0
-26.4617 3.90564 0.0
-26.4617 5.19136 0.0
-26.4617 6.47707 0.0
-26.4617 7.76279 0.0
-26.4617 9.0485 0.0
-26.4617 10.3342 0.0
-26.4617 11.6199 0.0
-26.4617 12.9056 0.0
-26.4617 14.1914 0.0
-26.4617 15.4771 0.0
-9.46175 -1.23721 0.0
-10.676 -1.23721 0.0
-11.8903 -1.23721 0.0
-13.1046 -1.23721 0.0
-14.3189 -1.23721 0.0
-15.5332 -1.23721 0.0
-16.7475 -1.23721 0.0
-17.9617 -1.23721 0.0
-19.176 -1.23721 0.0
-20.3903 -1.23721 0.0
-21.6046 -1.23721 0.0
-22.8189 -1.23721 0.0
-24.0332 -1.23721 0.0
-25.2475 -1.23721 0.0
9.05766 -12.0481 0.0
8.75267 -10.814 0.0
8.42798 -9.58496 0.0
8.08442 -8.36107 0.0
7.72396 -7.14204 0.0
7.34847 -5.92756 0.0
6.95622 -4.7184 0.0
6.54291 -3.51628 0.0
6.10421 -2.3232 0.0
5.6359 -1.14144 0.0
5.13159 0.0253895 0.0
4.58028 1.1707 0.0
3.97071 2.28602 0.0
3.28533 3.35621 0.0
2.50068 4.35553 0.0
1.59183 5.24252 0.0
0.539943 5.9523 0.0
-0.647701 6.3944 0.0
-1.9114 6.4813 0.0
-3.15176 6.21815 0.0
-4.31192 5.70259 0.0
-5.37507 5.00773 0.0
-6.33833 4.17934 0.0
-7.20217 3.2476 0.0
-7.96214 2.2293 0.0
-8.61132 1.13702 0.0
-9.15568 -0.0113403 0.0
10.1643 -12.36 0.0
7.9757 4.89503 0.0
-10.0733 15.6268 0.0
-10.2806 -0.146119 0.0
24.7017 -12.1163 0.0
23.3761 -12.1222 0.0
22.1099 -12.1616 0.0
20.8777 -12.1784 0.0
19.6526 -12.1887 0.0
18.4303 -12.1971 0.0
17.209 -12.2036 0.0
15.9854 -12.208 0.0
14.7563 -12.2137 0.0
13.5247 -12.2306 0.0
12.3207 -12.2696 0.0
11.3394 -12.3174 0.0
25.3503 2.58592 0.0
25.2524 1.50666 0.0
25.2359 0.236836 0.0
25.234 -1.05003 0.0
25.2386 -2.33787 0.0
25.2399 -3.62464 0.0
25.2389 -4.91237 0.0
25.2358 -6.20123 0.0
25.2298 -7.49319 0.0
25.2311 -8.7861 0.0
25.2482 -10.0633 0.0
25.3474 -11.1494 0.0
9.8217 3.60969 0.0
11.2551 3.77107 0.0
12.419 3.69608 0.0
13.62 3.67201 0.0
14.8289 3.65985 0.0
16.0412 3.65182 0.0
17.2549 3.64605 0.0
18.4688 3.64157 0.0
19.6827 3.63651 0.0
20.8985 3.62749 0.0
22.1225 3.60827 0.0
23.3828 3.56389 0.0
24.7045 3.55103 0.0
-7.93135 14.6299 0.0
-6.56078 15.3092 0.0
-5.49566 15.8582 0.0
-4.23954 16.2703 0.0
-3.02928 16.5959 0.0
-2.00701 16.8524 0.0
-1.00202 16.6407 0.0
-0.0376312 16.4584 0.0
0.538631 15.8265 0.0
1.93378 14.8017 0.0
3.11748 13.2551 0.0
3.77258 12.2163 0.0
4.41464 11.1528 0.0
5.00846 10.1029 0.0
5.42917 9.16192 0.0
6.20531 8.00955 0.0
6.89128 6.95291 0.0
7.44646 5.71903 0.0
-24.8218 15.5927 0.0
-23.497 15.5991 0.0
-22.2318 15.6387 0.0
-21.0009 15.6554 0.0
-19.7773 15.665 0.0
-18.5569 15.6728 0.0
-17.3389 15.6791 0.0
-16.122 15.6835 0.0
-14.9053 15.6869 0.0
-13.6897 15.6925 0.0
-12.4944 15.7063 0.0
-11.4879 15.723 0.0
-25.4677 0.882131 0.0
-25.3649 1.95731 0.0
-25.3397 3.22751 0.0
-25.332 4.5222 0.0
-25.3388 5.81972 0.0
-25.347 7.11164 0.0
-25.3527 8.39954 0.0
-25.354 9.68601 0.0
-25.3501 10.975 0.0
-25.352 12.2655 0.0
-25.3688 13.5409 0.0
-25.4676 14.6261 0.0
-11.5582 -0.423552 0.0
-12.5119 -0.548059 0.0
-13.5134 -0.328054 0.0
-14.7537 -0.208803 0.0
-16.0199 -0.150151 0.0
-17.2846 -0.12582 0.0
-18.5418 -0.121929 0.0
-19.7878 -0.130246 0.0
-21.0202 -0.141113 0.0
-22.2468 -0.137399 0.0
-23.5036 -0.0975868 0.0
-24.8234 -0.0815418 0.0
10.4094 -11.2198 0.0
9.69703 -9.90479 0.0
9.28855 -8.6509 0.0
8.77888 -7.26838 0.0
8.64565 -6.33043 0.0
8.22366 -5.03141 0.0
7.80217 -3.79817 0.0
7.36008 -2.57722 0.0
6.89139 -1.37253 0.0
6.41002 -0.182111 0.0
5.94396 1.04413 0.0
5.35429 2.28145 0.0
4.59459 3.44122 0.0
3.76375 4.50797 0.0
2.85235 5.49996 0.0
1.81861 6.43791 0.0
0.557159 7.17556 0.0
-1.03928 7.71929 0.0
-2.66395 7.40461 0.0
-4.01302 7.0121 0.0
-5.27609 6.38062 0.0
-6.40308 5.54403 0.0
-7.44171 4.64354 0.0
-8.42958 3.64302 0.0
-9.51819 2.41392 0.0
-10.1484 0.821495 0.0
8.51329 3.71031 0.0
-9.29018 14.5672 0.0
24.1019 -10.8505 0.0
22.7287 -11.0304 0.0
21.4905 -11.0635 0.0
20.2547 -11.0816 0.0
19.0226 -11.0995 0.0
17.7953 -11.1158 0.0
16.5685 -11.126 0.0
15.3327 -11.1303 0.0
14.077 -11.14 0.0
12.8052 -11.1876 0.0
24.1105 2.30285 0.0
24.1338 0.916621 0.0
24.1108 -0.378522 0.0
24.134 -1.67536 0.0
24.1388 -2.96038 0.0
24.1373 -4.24889 0.0
24.1341 -5.53953 0.0
24.1256 -6.83084 0.0
24.0997 -8.13797 0.0
24.1227 -9.44768 0.0
10.5847 2.71778 0.0
11.8385 2.67287 0.0
13.0406 2.63916 0.0
14.2443 2.61506 0.0
15.4538 2.5973 0.0
16.6672 2.58388 0.0
17.8817 2.5743 0.0
19.0947 2.56721 0.0
20.3071 2.5569 0.0
21.523 2.53706 0.0
22.7467 2.49487 0.0
-7.08957 14.1618 0.0
-5.74549 14.4998 0.0
-4.5063 14.9431 0.0
-3.28015 15.3523 0.0
-1.9201 15.6863 0.0
-0.507356 15.5837 0.0
0.534 14.6537 0.0
1.64793 13.4781 0.0
2.36739 12.2308 0.0
3.0323 11.1547 0.0
3.6463 10.0903 0.0
4.27137 9.0418 0.0
5.1144 8.07407 0.0
5.90123 7.04031 0.0
6.56276 4.79886 0.0
-24.2234 14.3286 0.0
-22.8522 14.5093 0.0
-21.6167 14.5425 0.0
-20.3842 14.5597 0.0
-19.1558 14.5757 0.0
-17.9328 14.5901 0.0
-16.7138 14.6004 0.0
-15.4957 14.6067 0.0
-14.2749 14.6116 0.0
-13.0433 14.6234 0.0
-11.753 14.6731 0.0
-24.2256 1.1536 0.0
-24.2312 2.52924 0.0
-24.1846 3.83456 0.0
-24.203 5.1589 0.0
-24.2246 6.46195 0.0
-24.2406 7.75335 0.0
-24.2493 9.03892 0.0
-24.2469 10.323 0.0
-24.2229 11.6236 0.0
-24.2455 12.9288 0.0
-11.1213 0.601687 0.0
-12.4904 0.482195 0.0
-13.8974 0.776949 0.0
-15.2362 0.921605 0.0
-16.5615 0.988222 0.0
-17.8725 1.00729 0.0
-19.1654 0.99675 0.0
-20.4302 0.964579 0.0
-21.6591 0.93562 0.0
-22.8719 0.956979 0.0
10.721 -10.2225 0.0
10.2118 -9.05767 0.0
9.85591 -7.82516 0.0
9.65332 -6.59088 0.0
9.19075 -5.4341 0.0
8.76577 -4.19203 0.0
8.33007 -2.94713 0.0
7.86234 -1.71419 0.0
7.36763 -0.512457 0.0
6.90097 0.674302 0.0
6.58104 2.05369 0.0
5.73361 3.33654 0.0
4.87077 4.47314 0.0
3.93949 5.50609 0.0
2.97137 6.51851 0.0
1.83479 7.63487 0.0
0.280565 8.22797 0.0
-0.877599 8.97317 0.0
-2.13185 8.36217 0.0
-3.48904 7.97985 0.0
-4.97804 7.62043 0.0
-6.24855 6.66595 0.0
-7.37852 5.79076 0.0
-8.4923 4.85097 0.0
-9.56091 3.79882 0.0
7.27169 3.48734 0.0
9.39698 2.58471 0.0
-10.6789 14.4637 0.0
-8.45975 13.8164 0.0
23.1856 -10.0229 0.0
22.1049 -9.96023 0.0
20.8629 -9.96701 0.0
19.6164 -9.99011 0.0
18.3801 -10.0216 0.0
17.1541 -10.045 0.0
15.9265 -10.0524 0.0
14.6728 -10.0419 0.0
11.4962 -11.3096 0.0
13.3601 -10.0379 0.0
23.2038 1.5004 0.0
22.8903 0.331009 0.0
23.037 -1.03054 0.0
23.0443 -2.2949 0.0
23.0371 -3.58044 0.0
23.0322 -4.87554 0.0
23.0314 -6.16766 0.0
23.0187 -7.4446 0.0
22.8662 -8.82433 0.0
11.2621 1.61314 0.0
12.4598 1.60842 0.0
13.6558 1.57846 0.0
14.863 1.55009 0.0
16.0766 1.52797 0.0
17.2941 1.50906 0.0
18.51 1.49988 0.0
19.7181 1.49488 0.0
20.926 1.47831 0.0
22.1384 1.45616 0.0
-6.06374 13.1333 0.0
-4.75289 13.6046 0.0
-3.51804 14.0897 0.0
-2.45833 14.5472 0.0
-1.14179 14.2523 0.0
0.063812 13.2076 0.0
0.958094 12.1557 0.0
1.69739 11.1247 0.0
2.31296 10.1093 0.0
2.85013 8.97521 0.0
3.58696 7.84144 0.0
6.5791 6.12405 0.0
4.48385 6.79623 0.0
-23.31 13.504 0.0
-22.2331 13.4427 0.0
-20.9971 13.4492 0.0
-19.7573 13.4692 0.0
-18.5272 13.4952 0.0
-17.3068 13.5143 0.0
-16.0905 13.5253 0.0
-14.8732 13.529 0.0
-13.6482 13.5283 0.0
-12.4056 13.5277 0.0
-23.3133 1.93375 0.0
-22.955 3.07533 0.0
-23.0421 4.50264 0.0
-23.0916 5.82176 0.0
-23.1228 7.11572 0.0
-23.1433 8.40081 0.0
-23.1556 9.67773 0.0
-23.1469 10.9413 0.0
-22.9943 12.3114 0.0
-10.6712 1.80469 0.0
-11.8302 1.50039 0.0
-12.9927 1.78571 0.0
-14.3916 2.00417 0.0
-15.7877 2.12018 0.0
-17.1635 2.16226 0.0
-18.5137 2.15357 0.0
-19.8416 2.11774 0.0
-21.102 2.01878 0.0
-22.2789 1.96042 0.0
11.3374 -9.28807 0.0
11.1699 -8.21776 0.0
10.8798 -6.96716 0.0
10.5386 -5.7272 0.0
10.1404 -4.48405 0.0
9.72267 -3.21488 0.0
9.2772 -1.92247 0.0
8.74545 -0.667216 0.0
8.17803 0.481703 0.0
7.72453 1.44978 0.0
5.39004 5.79055 0.0
1.45815 9.12425 0.0
0.270684 9.60615 0.0
-1.87919 9.69984 0.0
-3.05341 9.27431 0.0
-4.25972 9.03173 0.0
-5.50398 9.10391 0.0
-6.40059 8.11239 0.0
-7.49143 7.30938 0.0
-8.69579 6.47981 0.0
-10.5323 3.00211 0.0
-10.0645 5.50583 0.0
8.114 2.53254 0.0
[...]
CELL_DATA 2394
SCALARS U_var0 double
LOOKUP_TABLE default
0.873788
0.87632
0.864703
0.866991
0.858614
0.862951
0.871169
0.871501
0.760889
0.761035
0.794039
0.788406
0.791596
0.789294
0.784668
0.788114
0.800857
0.796369
0.808716
0.801877
0.789861
0.793266
0.796821
0.793631
0.970698
0.970646
0.969735
0.970148
0.970615
0.970541
0.969725
0.970099
0.968486
0.969
0.97013
0.969494
0.969568
0.969819
0.930032
0.762922
0.761001
0.761494
0.761826
0.762097
0.762468
0.76624
0.764325
0.763685
0.765218
0.76833
0.770691
0.783117
0.778962
0.781758
0.760942
0.760975
0.761741
0.760827
0.760813
0.760819
0.760739
0.762435
0.760748
0.762101
0.761032
0.760952
0.760963
0.804368
0.803079
0.808181
0.805591
0.800957
0.797184
0.804448
0.80165
0.813052
0.812524
0.822999
0.816254
0.803972
0.808794
0.80978
0.807223
0.730115
0.731029
0.728123
0.725706
0.726339
0.727375
0.729262
0.72693
0.727706
0.728593
0.729207
0.727873
0.729654
0.7285
0.784699
0.779276
0.781195
0.965202
0.964745
0.9653
0.96508
0.964738
0.963954
0.963774
0.776572
0.962034
0.771909
0.969826
0.969541
0.969143
0.969388
0.969265
0.968983
0.968427
0.96874
0.968328
0.968168
0.969061
0.968249
0.968902
0.968882
0.768611
0.763027
0.766816
0.76076
0.762977
0.760815
0.761533
0.761104
0.938123
0.935456
0.936163
0.933151
0.93488
0.930152
0.932943
0.933662
0.960541
0.963863
0.962475
0.96217
0.965467
0.965929
0.963601
0.963063
0.964287
0.963342
0.962672
0.963361
0.962798
0.961113
0.95909
0.962166
0.960892
0.963144
0.963399
0.962028
0.962687
0.963098
0.962743
0.963954
0.964273
0.964696
0.965145
0.964563
0.964643
0.964217
0.964179
0.963741
0.963828
0.964471
0.964174
0.964186
0.964438
0.965703
0.965825
0.966649
0.967352
0.966934
0.966794
0.965789
0.96648
0.965836
0.965811
0.96637
0.966322
0.965705
0.966344
0.96468
0.969049
0.968222
0.967376
0.968179
0.967048
0.964831
0.965598
0.966922
0.736018
0.73409
0.743153
0.739761
0.73261
0.731501
0.739853
0.736573
0.748415
0.749183
0.738024
0.743398
0.745787
0.741088
0.948752
0.951477
0.950767
0.951452
0.95431
0.951433
0.956127
0.957357
0.95983
0.957093
0.951552
0.954177
0.954424
0.953371
0.756785
0.726137
0.728139
0.728896
0.727025
0.73093
0.732846
0.729843
0.72983
0.728945
0.729623
0.72691
0.724444
0.724654
0.726044
0.727272
0.724923
0.725205
0.726474
0.727997
0.726179
0.727992
0.726897
0.732943
0.734063
0.730986
0.728625
0.729603
0.730335
0.732801
0.730585
0.731689
0.732254
0.732075
0.731197
0.732918
0.731723
0.775771
0.937161
0.931858
0.929316
0.921497
0.922696
0.927471
0.928834
0.930876
0.87549
0.877816
0.868647
0.869952
0.863026
0.867076
0.873426
0.873524
0.930635
0.927225
0.927283
0.892367
0.907756
0.920375
0.905378
0.915753
0.918868
0.927521
0.919399
0.93607
0.933394
0.944318
0.938561
0.914756
0.928383
0.926643
0.924334
0.936356
0.936152
0.919942
0.929155
0.923969
0.916959
0.912175
0.926274
0.898127
0.921574
0.939116
0.882026
0.937317
0.919926
0.931769
0.922255
0.925345
0.927679
0.920485
0.927996
0.926172
0.927489
0.935422
0.78414
0.783188
0.788473
0.785724
0.780882
0.77554
0.782004
0.780708
0.794664
0.790383
0.801428
0.79683
0.784147
0.787875
0.790309
0.787398
0.776756
0.766061
0.753727
0.755923
0.751164
0.748223
0.750325
0.750488
0.755734
0.752491
0.755006
0.75508
0.752565
0.752606
0.755015
0.753231
0.770942
0.738786
0.743979
0.734097
0.736505
0.730872
0.732723
0.738054
0.737151
0.832168
0.836961
0.831293
0.832819
0.842051
0.847486
0.84122
0.842829
0.830696
0.835299
0.837607
0.838252
0.832917
0.836161
0.745446
0.742256
0.743645
0.741806
0.741891
0.742318
0.742441
0.744484
0.848263
0.849617
0.842939
0.846739
0.850945
0.837633
0.84055
0.847003
0.875446
0.860616
0.873582
0.866122
0.87159
0.86996
0.863733
0.870584
0.900517
0.906449
0.901035
0.90192
0.912248
0.917147
0.912891
0.913548
0.899009
0.905978
0.907909
0.910902
0.903406
0.906818
0.91868
0.92478
0.921394
0.921665
0.926638
0.922392
0.931261
0.931254
0.935045
0.931898
0.923166
0.927388
0.929527
0.926275
0.93552
0.940374
0.938023
0.938581
0.942436
0.938907
0.945742
0.945873
0.948774
0.946174
0.939344
0.942811
0.944451
0.941854
0.733382
0.737383
0.729942
0.731629
0.727488
0.728791
0.73285
0.732115
0.735287
0.739577
0.742612
0.737748
0.745516
0.751866
0.744453
0.743695
0.962784
0.963375
0.961632
0.961903
0.96375
0.961928
0.965029
0.965063
0.966072
0.965279
0.962661
0.963807
0.964485
0.963602
0.853533
0.866279
0.950477
0.958099
0.957177
0.955989
0.96262
0.961462
0.963584
0.968692
0.969856
0.968089
0.960537
0.965949
0.961932
0.962891
0.896728
0.898739
0.894206
0.89632
0.892605
0.895301
0.896405
0.967304
0.968318
0.965983
0.966783
0.969279
0.969901
0.967586
0.968463
0.964202
0.965142
0.967616
0.966654
0.966005
0.966858
0.929507
0.963299
0.963283
0.964036
0.963685
0.964306
0.963684
0.9641
0.963047
0.963836
0.834301
0.844776
0.849842
0.841981
0.858901
0.864916
0.856196
0.857443
0.929013
0.916976
0.917013
0.914655
0.939529
0.935381
0.894834
0.901407
0.891909
0.896254
0.906679
0.914565
0.908418
0.910654
0.886874
0.898277
0.878827
0.890946
0.903526
0.903963
0.893925
0.899517
0.862081
0.867736
0.868982
0.865933
0.875597
0.876862
0.872762
0.873507
0.93179
0.916821
0.860863
0.872015
0.858742
0.865915
0.881888
0.891202
0.886249
0.886693
0.860656
0.879268
0.868803
0.869819
0.876526
0.879925
0.866156
0.873718
0.903333
0.900082
0.908702
0.914093
0.909168
0.907534
0.780379
0.777688
0.780252
0.77193
0.771253
0.772619
0.778428
0.773561
0.77488
0.775311
0.776249
0.773462
0.777997
0.776314
0.773089
0.817707
0.820494
0.815851
0.817477
0.82379
0.827696
0.821935
0.823816
0.812678
0.815985
0.820299
0.819238
0.816022
0.818641
0.81583
0.813419
0.815351
0.814669
0.810834
0.80695
0.8101
0.80961
0.816274
0.814199
0.819783
0.816788
0.812374
0.812408
0.814802
0.813226
0.92951
0.970915
0.951836
0.959795
0.958487
0.919684
0.883805
0.922942
0.912846
0.953076
0.940492
0.947491
0.946885
0.937837
0.936113
0.952211
0.94306
0.864739
0.870586
0.87294
0.869343
0.877285
0.882207
0.87616
0.875629
0.864547
0.867664
0.873694
0.869359
0.868398
0.867643
0.874489
0.869958
0.879835
0.880247
0.886849
0.881625
0.870271
0.876304
0.876155
0.874499
0.761142
0.76131
0.761677
0.760916
0.760892
0.760936
0.760838
0.760893
0.768861
0.760836
0.745906
0.747528
0.743977
0.74176
0.743186
0.743441
0.747036
0.74465
0.746309
0.746504
0.745036
0.744848
0.746642
0.745328
0.760865
0.762639
0.766316
0.767594
0.770157
0.768966
0.764856
0.769149
0.767896
0.762269
0.75808
0.761644
0.761502
0.770454
0.765558
0.770192
0.769816
0.764498
0.765293
0.768884
0.766026
0.76067
0.763855
0.774207
0.777993
0.776057
0.771593
0.776433
0.765702
0.780234
0.782824
0.786222
0.782325
0.768441
0.760842
0.760861
0.762395
0.761769
0.765034
0.76289
0.762298
0.737337
0.760786
0.768098
0.762025
0.764212
0.761657
0.760381
0.761272
0.760699
0.761188
0.762287
0.761046
0.76095
0.760889
0.76095
0.761085
0.761031
0.790348
0.796204
0.790786
0.792005
0.805205
0.820984
0.802685
0.806966
0.789519
0.793658
0.787159
0.789971
0.797872
0.797093
0.791542
0.796437
0.787205
0.787032
0.785094
0.783282
0.781362
0.783604
0.737038
0.738329
0.735072
0.732808
0.734003
0.734506
0.737022
0.735042
0.736031
0.736526
0.736156
0.735501
0.737197
0.735981
0.730848
0.730593
0.728571
0.728271
0.726769
0.7274
0.72905
0.729824
0.76569
0.771492
0.76309
0.75025
0.754328
0.760695
0.765435
0.76073
0.767884
0.763379
0.760804
0.76238
0.761964
0.761427
0.760626
0.762058
0.761017
0.761431
0.762072
0.761235
0.761336
0.760931
0.761113
0.959441
0.965102
0.964633
0.96256
0.973956
0.975677
0.972995
0.973372
0.967226
0.969416
0.96677
0.967791
0.967286
0.96981
0.9665
0.968815
0.866819
0.873733
0.85678
0.861539
0.850522
0.855476
0.865766
0.865011
0.812433
0.821239
0.83323
0.820329
0.834456
0.85576
0.837668
0.832172
0.874191
0.967137
0.966586
0.966872
0.966859
0.965937
0.965429
0.96543
0.961168
0.963541
0.966962
0.967011
0.967962
0.968663
0.968283
0.968194
0.967283
0.96801
0.9677
0.967472
0.967722
0.967803
0.967102
0.967704
0.968466
0.967871
0.968032
0.968112
0.966909
0.966591
0.966687
0.969596
0.969052
0.969201
0.969277
0.968638
0.968134
0.968148
0.962549
0.968542
0.969056
0.969675
0.970463
0.970408
0.970024
0.969534
0.970251
0.970063
0.969798
0.969536
0.969979
0.969489
0.969709
0.97004
0.969446
0.969456
0.969631
0.968365
0.968129
0.968162
0.97014
0.969458
0.969309
0.969622
0.968186
0.968144
0.968151
0.963902
0.967399
0.96812
0.968849
0.970456
0.970783
0.96962
0.969455
0.970838
0.970801
0.97009
0.968734
0.969954
0.969211
0.969234
0.958748
0.961744
0.953216
0.960832
0.956903
0.959656
0.958732
0.955242
0.95861
0.957461
0.948885
0.949376
0.947128
0.948509
0.944729
0.947126
0.947616
0.967324
0.792024
0.800179
0.81042
0.798847
0.812216
0.830338
0.814643
0.809706
0.881382
0.786516
0.80627
0.777729
0.787918
0.77206
0.777119
0.790768
0.784888
0.958919
0.934908
0.91803
0.919158
0.915416
0.917417
0.91235
0.915316
0.916267
0.754211
0.759416
0.766657
0.758113
0.767104
0.781077
0.769041
0.765461
0.930805
0.877789
0.884456
0.876848
0.876942
0.88333
0.878461
0.890639
0.889344
0.895046
0.891399
0.879889
0.885028
0.888699
0.8835
0.742308
0.747213
0.751939
0.745452
0.754155
0.763402
0.754022
0.75235
0.762486
0.757288
0.771322
0.765956
0.753318
0.74976
0.763078
0.757852
0.778077
0.777654
0.761796
0.768881
0.77425
0.766624
0.85299
0.857646
0.852674
0.853229
0.858928
0.854206
0.863987
0.8647
0.870618
0.865686
0.854858
0.859727
0.860822
0.85824
0.817289
0.822911
0.828047
0.828565
0.826466
0.828702
0.820535
0.826213
0.871541
0.810725
0.807301
0.808488
0.813302
0.815532
0.813837
0.814535
0.810755
0.812307
0.81137
0.813215
0.746291
0.742801
0.754141
0.749965
0.740289
0.738225
0.748726
0.744652
0.759993
0.760342
0.747151
0.753323
0.756956
0.750939
0.937134
0.931325
0.923004
0.785442
0.854923
0.81006
0.905501
0.833085
0.830105
0.929062
0.886094
0.930159
0.930099
0.860115
0.859908
0.866625
0.862601
0.859719
0.859294
0.866604
0.862279
0.873035
0.87447
0.86255
0.868324
0.868608
0.866367
0.927879
0.923937
0.926566
0.932182
0.925412
0.925031
0.93128
0.943018
0.935946
0.93668
0.926577
0.923055
0.931929
0.930726
0.875341
0.87679
0.868308
0.869286
0.862867
0.866564
0.872772
0.873257
0.922342
0.926529
0.92025
0.933446
0.930784
0.924962
0.921404
0.928306
0.925846
0.92846
0.912602
0.873819
0.92282
0.923758
0.929156
0.92386
0.913089
0.934903
0.90174
0.935175
0.930017
0.932701
0.917292
0.898127
0.934048
0.936929
0.938892
0.873294
0.874549
0.867033
0.860306
0.86009
0.862684
0.867064
0.860031
0.860017
0.862693
0.868899
0.862698
0.868602
0.866717
0.86909
0.875261
0.875874
0.873687
0.882033
0.887049
0.882151
0.880548
0.881328
0.866458
0.865035
0.873076
0.86788
0.863624
0.862504
0.871263
0.865625
0.879555
0.880848
0.866658
0.873417
0.874272
0.871876
0.924123
0.887598
0.927115
0.913596
0.9188
0.92115
0.931122
0.927155
0.926416
0.923972
0.919466
0.918079
0.917684
0.920551
0.932408
0.929044
0.922502
0.934015
0.924641
0.933603
0.93142
0.763128
0.764638
0.756956
0.761035
0.757318
0.757987
0.758638
0.758419
0.761739
0.77177
0.752696
0.748297
0.750584
0.748151
0.748327
0.748871
0.748968
0.751454
0.766756
0.771749
0.772526
0.741061
0.74183
0.738835
0.736977
0.738178
0.73846
0.741065
0.739373
0.740469
0.740668
0.739853
0.739581
0.740789
0.739943
0.737379
0.738822
0.737969
0.73777
0.739194
0.738851
0.739894
0.775413
0.737085
0.734907
0.735065
0.733784
0.73326
0.733728
0.7345
0.736033
0.781661
0.778007
0.778787
0.733279
0.731935
0.731146
0.730269
0.729328
0.729867
0.73102
0.732243
0.792014
0.793759
0.793029
0.792501
0.786788
0.790551
0.730113
0.730974
0.727671
0.72796
0.725888
0.726619
0.728772
0.729096
0.770675
0.729321
0.729876
0.727093
0.724341
0.724377
0.726079
0.726915
0.724365
0.724434
0.725994
0.728279
0.725969
0.727939
0.726822
0.736448
0.739037
0.724845
0.724545
0.728336
0.726925
0.724401
0.724276
0.727589
0.726356
0.731059
0.731464
0.72656
0.729009
0.729758
0.727714
0.734779
0.800233
0.788893
0.791905
0.736207
0.738564
0.736996
0.735397
0.735655
0.731888
0.727355
0.726613
0.729852
0.730075
0.725869
0.725413
0.728297
0.733597
0.728955
0.732194
0.73068
0.747854
0.741106
0.741733
0.736669
0.730652
0.72985
0.73402
0.734503
0.729097
0.728267
0.732039
0.738902
0.733003
0.737166
0.73529
0.819452
0.774982
0.848515
0.801973
0.893017
0.80803
0.80271
0.802472
0.793284
0.781389
0.77627
0.786041
0.783954
0.771937
0.767386
0.776992
0.797071
0.781755
0.790753
0.788209
0.912934
0.800445
0.793527
0.813483
0.804733
0.789077
0.78523
0.804879
0.795791
0.824908
0.825391
0.80019
0.811726
0.817776
0.808422
0.946114
0.824082
0.818276
0.837321
0.828807
0.812926
0.80705
0.82864
0.818598
0.85077
0.852934
0.824022
0.836277
0.84126
0.832879
0.966032
0.844326
0.839578
0.85218
0.84637
0.83468
0.82945
0.845777
0.83826
0.860821
0.861981
0.842581
0.851052
0.854722
0.848727
0.961436
0.963132
0.869783
0.871141
0.861876
0.854387
0.852599
0.856958
0.858815
0.850657
0.847944
0.853275
0.864291
0.855483
0.862226
0.860233
0.929414
0.890219
0.872429
0.873718
0.86552
0.858824
0.857895
0.861225
0.86437
0.856844
0.855622
0.859471
0.86763
0.860483
0.866644
0.86471
0.929592
0.932817
0.913802
0.889391
0.874812
0.875754
0.868758
0.86169
0.861048
0.86382
0.867955
0.86071
0.86044
0.863128
0.870433
0.863453
0.869602
0.867944
0.900309
0.906928
0.899557
0.891893
0.883699
0.887409
0.886936
0.8755
0.867507
0.87557
0.872501
0.882079
0.887416
0.886033
0.880042
0.879713
0.885347
0.882229
0.913077
0.893801
0.890855
0.894939
0.891008
0.909936
0.796967
0.797891
0.804862
0.799462
0.797133
0.793529
0.800843
0.796589
0.814737
0.810932
0.831657
0.816294
0.799151
0.804469
0.806776
0.804194
0.73948
0.965687
0.967466
0.967992
0.971065
0.972866
0.972724
0.973565
0.969441
0.970198
0.930096
0.761414
0.761025
0.761866
0.760794
0.760735
0.760871
0.760768
0.762661
0.76331
0.743826
0.747427
0.76345
0.764733
0.767723
0.762471
0.759232
0.764
0.76242
0.762988
0.769694
0.749305
0.770226
0.76089
0.7609
0.76157
0.760728
0.764364
0.762511
0.760577
0.762199
0.760606
0.762028
0.761741
0.766098
0.761367
0.760231
0.761205
0.760857
0.760562
0.760961
0.761144
0.760712
0.775158
0.733396
0.735506
0.740946
0.743158
0.762699
0.735175
0.766116
0.760486
0.76474
0.760563
0.760702
0.758344
0.762267
0.761629
0.760939
0.760396
0.761746
0.761037
0.761375
0.761612
0.761189
0.761122
0.962043
0.963797
0.883998
0.90291
0.963281
0.965988
0.965266
0.967158
0.967058
0.964204
0.959157
0.9619
0.965757
0.854013
0.962599
0.960877
0.949356
0.95556
0.938179
0.831443
0.857204
0.849478
0.9223
0.903499
0.800768
0.918011
0.8836
0.780803
0.896512
0.830975
0.843023
0.844511
0.812712
0.822999
0.803982
0.800351
0.808835
0.927725
0.916919
0.925602
0.867336
0.884091
0.869477
0.882318
0.930712
0.881685
0.931493
0.931398
0.930597
0.886952
0.932203
0.92898
0.92586
0.946558
0.94327
0.93574
0.944689
0.941677
0.932178
0.931031
0.931114
0.906275
0.932448
0.930281
0.928178
0.919113
0.923848
0.926923
0.92371
0.909191
0.931755
0.896811
0.930099
0.925425
0.929267
0.926094
0.918217
0.930195
0.909676
0.896857
0.906549
0.92839
0.911322
0.890277
0.888931
0.888601
0.887919
0.919542
0.932782
0.894033
0.925771
0.919282
0.924616
0.919061
0.921785
0.917493
0.916421
0.916318
0.918243
0.927844
0.925856
0.920373
0.930385
0.923119
0.756317
0.765874
0.764268
0.766694
0.744108
0.76741
0.761708
0.740824
0.770083
0.761597
0.773071
0.746683
0.731921
0.733313
0.745618
0.74095
0.732172
0.732847
0.742298
0.734013
0.734043
0.763657
0.756866
0.788671
0.779735
0.782126
0.74577
0.744682
0.758281
0.753935
0.753132
0.767263
0.76511
0.763015
0.791467
0.781751
0.776577
0.80584
0.79683
0.871557
0.8607
0.832981
0.82787
0.947555
0.902495
0.960882
0.92767
0.873334
0.876006
0.878878
0.879711
0.958294
0.953152
0.960359
0.883436
0.886284
0.898343
0.882567
0.885387
0.881655
0.88362
0.930203
0.882268
0.883415
0.885215
0.88461
0.895751
0.929779
0.779821
0.793107
0.797868
0.798748
0.801274
0.791094
0.796826
0.769922
0.79022
0.78033
0.788488
0.956723
0.953016
0.948269
0.948506
0.952204
0.92912
0.944926
0.961537
0.761512
0.761072
0.760927
0.761882
0.762211
0.760492
0.764531
0.761328
0.751329
0.7616
0.763211
0.757488
0.759825
0.764484
0.766458
0.759308
0.761594
0.772697
0.765936
0.761913
0.760956
0.76082
0.760943
0.760564
0.763563
0.760096
0.760377
0.761748
0.762741
0.760415
0.761171
0.760532
0.760669
0.760692
0.761191
0.760185
0.761301
0.760927
0.76641
0.74156
0.749286
0.764839
0.763954
0.761754
0.763335
0.760202
0.760424
0.76174
0.761966
0.761242
0.760611
0.76176
0.761203
0.761129
0.760998
0.760442
0.760802
0.760645
0.959748
0.903136
0.901668
0.897255
0.963263
0.893454
0.96359
0.958351
0.958165
0.954706
0.954645
0.943153
0.885623
0.936213
0.872847
0.947092
0.908497
0.885552
0.83793
0.890318
0.807671
0.855681
0.826225
0.806965
0.830855
0.838308
0.926739
0.924722
0.922623
0.931475
0.932722
0.904351
0.921821
0.931746
0.904317
0.931955
0.900367
0.932046
0.929169
0.919033
0.900459
0.931746
0.931096
0.936281
0.939647
0.929701
0.928505
0.926082
0.922601
0.922143
0.924301
0.91711
0.910048
0.931634
0.930106
0.930517
0.930499
0.904142
0.932263
0.898499
0.926981
0.914698
0.92555
0.923509
0.90056
0.892389
0.907831
0.902404
0.916161
0.930805
0.92272
0.918671
0.922849
0.923175
0.919813
0.915962
0.925505
0.921475
0.91636
0.917322
0.927247
0.91616
0.926028
0.923545
0.75532
0.762196
0.762103
0.75048
0.761053
0.746941
0.761634
0.743689
0.739939
0.763138
0.73798
0.750275
0.747689
0.737793
0.748747
0.739413
0.752088
0.742931
0.750997
0.751538
0.787836
0.818216
0.867143
0.915333
0.888675
0.930812
0.902494
0.893761
0.919012
0.956589
0.947549
0.93203
0.942489
0.907512
0.917021
0.917368
0.926217
0.895159
0.929144
0.949634
0.898591
0.910777
0.895316
0.897742
0.790162
0.777291
0.782246
0.76696
0.770667
0.77317
0.952436
0.950339
0.931023
0.956753
0.928425
0.956237
0.93409
0.761641
0.760414
0.761792
0.760161
0.761716
0.756589
0.756484
0.761023
0.76054
0.761613
0.762755
0.763476
0.762554
0.766454
0.761677
0.760512
0.760177
0.760797
0.761531
0.75995
0.760064
0.761232
0.760997
0.761249
0.75827
0.760407
0.76071
0.759747
0.747108
0.761409
0.744662
0.76068
0.760831
0.75375
0.75991
0.757059
0.759138
0.761168
0.760137
0.759625
0.760589
0.760413
0.760016
0.760511
0.953037
0.955127
0.950369
0.91448
0.956189
0.944306