# vtk DataFile Version 3.0
State and Gradient Output
ASCII
DATASET UNSTRUCTURED_GRID
POINTS 1346 double
26.3422 -13.287 0.0
9.34224 -13.287 0.0
25.128 -13.287 0.0
23.9137 -13.287 0.0
22.6994 -13.287 0.0
21.4851 -13.287 0.0
20.2708 -13.287 0.0
19.0565 -13.287 0.0
17.8422 -13.287 0.0
16.628 -13.287 0.0
15.4137 -13.287 0.0
14.1994 -13.287 0.0
12.9851 -13.287 0.0
11.7708 -13.287 0.0
10.5565 -13.287 0.0
26.3422 4.71301 0.0
26.3422 3.4273 0.0
26.3422 2.14158 0.0
26.3422 0.855867 0.0
26.3422 -0.429847 0.0
26.3422 -1.71556 0.0
26.3422 -3.00128 0.0
26.3422 -4.28699 0.0
26.3422 -5.5727 0.0
26.3422 -6.85842 0.0
26.3422 -8.14413 0.0
26.3422 -9.42985 0.0
26.3422 -10.7156 0.0
26.3422 -12.0013 0.0
9.34224 4.71301 0.0
10.5565 4.71301 0.0
11.7708 4.71301 0.0
12.9851 4.71301 0.0
14.1994 4.71301 0.0
15.4137 4.71301 0.0
16.628 4.71301 0.0
17.8422 4.71301 0.0
19.0565 4.71301 0.0
20.2708 4.71301 0.0
21.4851 4.71301 0.0
22.6994 4.71301 0.0
23.9137 4.71301 0.0
25.128 4.71301 0.0
-9.46175 16.7628 0.0
-8.85102 15.7279 0.0
-7.6439 15.8335 0.0
-6.56175 16.4977 0.0
-5.42188 17.0576 0.0
-4.22328 17.4744 0.0
-2.97506 17.7032 0.0
-1.70655 17.7179 0.0
-0.454966 17.5103 0.0
0.738524 17.0811 0.0
1.81399 16.41 0.0
2.73897 15.5415 0.0
3.54014 14.5565 0.0
4.26243 13.5117 0.0
4.94387 12.4397 0.0
5.59914 11.3515 0.0
6.24028 10.2549 0.0
6.87714 9.15575 0.0
7.50925 8.05391 0.0
8.13225 6.94689 0.0
8.7433 5.83323 0.0
-26.4617 16.7628 0.0
-25.2475 16.7628 0.0
-24.0332 16.7628 0.0
-22.8189 16.7628 0.0
-21.6046 16.7628 0.0
-20.3903 16.7628 0.0
-19.176 16.7628 0.0
-17.9617 16.7628 0.0
-16.7475 16.7628 0.0
-15.5332 16.7628 0.0
-14.3189 16.7628 0.0
-13.1046 16.7628 0.0
-11.8903 16.7628 0.0
-10.676 16.7628 0.0
-26.4617 -1.23721 0.0
-26.4617 0.048499 0.0
-26.4617 1.33421 0.0
-26.4617 2.61993 0.0
-26.4617 3.90564 0.0
-26.4617 5.19136 0.0
-26.4617 6.47707 0.0
-26.4617 7.76279 0.0
-26.4617 9.0485 0.0
-26.4617 10.3342 0.0
-26.4617 11.6199 0.0
-26.4617 12.9056 0.0
-26.4617 14.1914 0.0
-26.4617 15.4771 0.0
-9.46175 -1.23721 0.0
-10.676 -1.23721 0.0
-11.8903 -1.23721 0.0
-13.1046 -1.23721 0.0
-14.3189 -1.23721 0.0
-15.5332 -1.23721 0.0
-16.7475 -1.23721 0.0
-17.9617 -1.23721 0.0
-19.176 -1.23721 0.0
-20.3903 -1.23721 0.0
-21.6046 -1.23721 0.0
-22.8189 -1.23721 0.0
-24.0332 -1.23721 0.0
-25.2475 -1.23721 0.0
9.05766 -12.0481 0.0
8.75267 -10.814 0.0
8.42798 -9.58496 0.0
8.08442 -8.36107 0.0
7.72396 -7.14204 0.0
7.34847 -5.92756 0.0
6.95622 -4.7184 0.0
6.54291 -3.51628 0.0
6.10421 -2.3232 0.0
5.6359 -1.14144 0.0
5.13159 0.0253895 0.0
4.58028 1.1707 0.0
3.97071 2.28602 0.0
3.28533 3.35621 0.0
2.50068 4.35553 0.0
1.59183 5.24252 0.0
0.539943 5.9523 0.0
-0.647701 6.3944 0.0
-1.9114 6.4813 0.0
-3.15176 6.21815 0.0
-4.31192 5.70259 0.0
-5.37507 5.00773 0.0
-6.33833 4.17934 0.0
-7.20217 3.2476 0.0
-7.96214 2.2293 0.0
-8.61132 1.13702 0.0
-9.15568 -0.0113403 0.0
10.1643 -12.36 0.0
7.9757 4.89503 0.0
-10.0733 15.6268 0.0
-10.2806 -0.146119 0.0
24.7017 -12.1163 0.0
23.3761 -12.1222 0.0
22.1099 -12.1616 0.0
20.8777 -12.1784 0.0
19.6526 -12.1887 0.0
18.4303 -12.1971 0.0
17.209 -12.2036 0.0
15.9854 -12.208 0.0
14.7563 -12.2137 0.0
13.5247 -12.2306 0.0
12.3207 -12.2696 0.0
11.3394 -12.3174 0.0
25.3503 2.58592 0.0
25.2524 1.50666 0.0
25.2359 0.236836 0.0
25.234 -1.05003 0.0
25.2386 -2.33787 0.0
25.2399 -3.62464 0.0
25.2389 -4.91237 0.0
25.2358 -6.20123 0.0
25.2298 -7.49319 0.0
25.2311 -8.7861 0.0
25.2482 -10.0633 0.0
25.3474 -11.1494 0.0
9.8217 3.60969 0.0
11.2551 3.77107 0.0
12.419 3.69608 0.0
13.62 3.67201 0.0
14.8289 3.65985 0.0
16.0412 3.65182 0.0
17.2549 3.64605 0.0
18.4688 3.64157 0.0
19.6827 3.63651 0.0
20.8985 3.62749 0.0
22.1225 3.60827 0.0
23.3828 3.56389 0.0
24.7045 3.55103 0.0
-7.93135 14.6299 0.0
-6.56078 15.3092 0.0
-5.49566 15.8582 0.0
-4.23954 16.2703 0.0
-3.02928 16.5959 0.0
-2.00701 16.8524 0.0
-1.00202 16.6407 0.0
-0.0376312 16.4584 0.0
0.538631 15.8265 0.0
1.93378 14.8017 0.0
3.11748 13.2551 0.0
3.77258 12.2163 0.0
4.41464 11.1528 0.0
5.00846 10.1029 0.0
5.42917 9.16192 0.0
6.20531 8.00955 0.0
6.89128 6.95291 0.0
7.44646 5.71903 0.0
-24.8218 15.5927 0.0
-23.497 15.5991 0.0
-22.2318 15.6387 0.0
-21.0009 15.6554 0.0
-19.7773 15.665 0.0
-18.5569 15.6728 0.0
-17.3389 15.6791 0.0
-16.122 15.6835 0.0
-14.9053 15.6869 0.0
-13.6897 15.6925 0.0
-12.4944 15.7063 0.0
-11.4879 15.723 0.0
-25.4677 0.882131 0.0
-25.3649 1.95731 0.0
-25.3397 3.22751 0.0
-25.332 4.5222 0.0
-25.3388 5.81972 0.0
-25.347 7.11164 0.0
-25.3527 8.39954 0.0
-25.354 9.68601 0.0
-25.3501 10.975 0.0
-25.352 12.2655 0.0
-25.3688 13.5409 0.0
-25.4676 14.6261 0.0
-11.5582 -0.423552 0.0
-12.5119 -0.548059 0.0
-13.5134 -0.328054 0.0
-14.7537 -0.208803 0.0
-16.0199 -0.150151 0.0
-17.2846 -0.12582 0.0
-18.5418 -0.121929 0.0
-19.7878 -0.130246 0.0
-21.0202 -0.141113 0.0
-22.2468 -0.137399 0.0
-23.5036 -0.0975868 0.0
-24.8234 -0.0815418 0.0
10.4094 -11.2198 0.0
9.69703 -9.90479 0.0
9.28855 -8.6509 0.0
8.77888 -7.26838 0.0
8.64565 -6.33043 0.0
8.22366 -5.03141 0.0
7.80217 -3.79817 0.0
7.36008 -2.57722 0.0
6.89139 -1.37253 0.0
6.41002 -0.182111 0.0
5.94396 1.04413 0.0
5.35429 2.28145 0.0
4.59459 3.44122 0.0
3.76375 4.50797 0.0
2.85235 5.49996 0.0
1.81861 6.43791 0.0
0.557159 7.17556 0.0
-1.03928 7.71929 0.0
-2.66395 7.40461 0.0
-4.01302 7.0121 0.0
-5.27609 6.38062 0.0
-6.40308 5.54403 0.0
-7.44171 4.64354 0.0
-8.42958 3.64302 0.0
-9.51819 2.41392 0.0
-10.1484 0.821495 0.0
8.51329 3.71031 0.0
-9.29018 14.5672 0.0
24.1019 -10.8505 0.0
22.7287 -11.0304 0.0
21.4905 -11.0635 0.0
20.2547 -11.0816 0.0
19.0226 -11.0995 0.0
17.7953 -11.1158 0.0
16.5685 -11.126 0.0
15.3327 -11.1303 0.0
14.077 -11.14 0.0
12.8052 -11.1876 0.0
24.1105 2.30285 0.0
24.1338 0.916621 0.0
24.1108 -0.378522 0.0
24.134 -1.67536 0.0
24.1388 -2.96038 0.0
24.1373 -4.24889 0.0
24.1341 -5.53953 0.0
24.1256 -6.83084 0.0
24.0997 -8.13797 0.0
24.1227 -9.44768 0.0
10.5847 2.71778 0.0
11.8385 2.67287 0.0
13.0406 2.63916 0.0
14.2443 2.61506 0.0
15.4538 2.5973 0.0
16.6672 2.58388 0.0
17.8817 2.5743 0.0
19.0947 2.56721 0.0
20.3071 2.5569 0.0
21.523 2.53706 0.0
22.7467 2.49487 0.0
-7.08957 14.1618 0.0
-5.74549 14.4998 0.0
-4.5063 14.9431 0.0
-3.28015 15.3523 0.0
-1.9201 15.6863 0.0
-0.507356 15.5837 0.0
0.534 14.6537 0.0
1.64793 13.4781 0.0
2.36739 12.2308 0.0
3.0323 11.1547 0.0
3.6463 10.0903 0.0
4.27137 9.0418 0.0
5.1144 8.07407 0.0
5.90123 7.04031 0.0
6.56276 4.79886 0.0
-24.2234 14.3286 0.0
-22.8522 14.5093 0.0
-21.6167 14.5425 0.0
-20.3842 14.5597 0.0
-19.1558 14.5757 0.0
-17.9328 14.5901 0.0
-16.7138 14.6004 0.0
-15.4957 14.6067 0.0
-14.2749 14.6116 0.0
-13.0433 14.6234 0.0
-11.753 14.6731 0.0
-24.2256 1.1536 0.0
-24.2312 2.52924 0.0
-24.1846 3.83456 0.0
-24.203 5.1589 0.0
-24.2246 6.46195 0.0
-24.2406 7.75335 0.0
-24.2493 9.03892 0.0
-24.2469 10.323 0.0
-24.2229 11.6236 0.0
-24.2455 12.9288 0.0
-11.1213 0.601687 0.0
-12.4904 0.482195 0.0
-13.8974 0.776949 0.0
-15.2362 0.921605 0.0
-16.5615 0.988222 0.0
-17.8725 1.00729 0.0
-19.1654 0.99675 0.0
-20.4302 0.964579 0.0
-21.6591 0.93562 0.0
-22.8719 0.956979 0.0
10.721 -10.2225 0.0
10.2118 -9.05767 0.0
9.85591 -7.82516 0.0
9.65332 -6.59088 0.0
9.19075 -5.4341 0.0
8.76577 -4.19203 0.0
8.33007 -2.94713 0.0
7.86234 -1.71419 0.0
7.36763 -0.512457 0.0
6.90097 0.674302 0.0
6.58104 2.05369 0.0
5.73361 3.33654 0.0
4.87077 4.47314 0.0
3.93949 5.50609 0.0
2.97137 6.51851 0.0
1.83479 7.63487 0.0
0.280565 8.22797 0.0
-0.877599 8.97317 0.0
-2.13185 8.36217 0.0
-3.48904 7.97985 0.0
-4.97804 7.62043 0.0
-6.24855 6.66595 0.0
-7.37852 5.79076 0.0
-8.4923 4.85097 0.0
-9.56091 3.79882 0.0
7.27169 3.48734 0.0
9.39698 2.58471 0.0
-10.6789 14.4637 0.0
-8.45975 13.8164 0.0
23.1856 -10.0229 0.0
22.1049 -9.96023 0.0
20.8629 -9.96701 0.0
19.6164 -9.99011 0.0
18.3801 -10.0216 0.0
17.1541 -10.045 0.0
15.9265 -10.0524 0.0
14.6728 -10.0419 0.0
11.4962 -11.3096 0.0
13.3601 -10.0379 0.0
23.2038 1.5004 0.0
22.8903 0.331009 0.0
23.037 -1.03054 0.0
23.0443 -2.2949 0.0
23.0371 -3.58044 0.0
23.0322 -4.87554 0.0
23.0314 -6.16766 0.0
23.0187 -7.4446 0.0
22.8662 -8.82433 0.0
11.2621 1.61314 0.0
12.4598 1.60842 0.0
13.6558 1.57846 0.0
14.863 1.55009 0.0
16.0766 1.52797 0.0
17.2941 1.50906 0.0
18.51 1.49988 0.0
19.7181 1.49488 0.0
20.926 1.47831 0.0
22.1384 1.45616 0.0
-6.06374 13.1333 0.0
-4.75289 13.6046 0.0
-3.51804 14.0897 0.0
-2.45833 14.5472 0.0
-1.14179 14.2523 0.0
0.063812 13.2076 0.0
0.958094 12.1557 0.0
1.69739 11.1247 0.0
2.31296 10.1093 0.0
2.85013 8.97521 0.0
3.58696 7.84144 0.0
6.5791 6.12405 0.0
4.48385 6.79623 0.0
-23.31 13.504 0.0
-22.2331 13.4427 0.0
-20.9971 13.4492 0.0
-19.7573 13.4692 0.0
-18.5272 13.4952 0.0
-17.3068 13.5143 0.0
-16.0905 13.5253 0.0
-14.8732 13.529 0.0
-13.6482 13.5283 0.0
-12.4056 13.5277 0.0
-23.3133 1.93375 0.0
-22.955 3.07533 0.0
-23.0421 4.50264 0.0
-23.0916 5.82176 0.0
-23.1228 7.11572 0.0
-23.1433 8.40081 0.0
-23.1556 9.67773 0.0
-23.1469 10.9413 0.0
-22.9943 12.3114 0.0
-10.6712 1.80469 0.0
-11.8302 1.50039 0.0
-12.9927 1.78571 0.0
-14.3916 2.00417 0.0
-15.7877 2.12018 0.0
-17.1635 2.16226 0.0
-18.5137 2.15357 0.0
-19.8416 2.11774 0.0
-21.102 2.01878 0.0
-22.2789 1.96042 0.0
11.3374 -9.28807 0.0
11.1699 -8.21776 0.0
10.8798 -6.96716 0.0
10.5386 -5.7272 0.0
10.1404 -4.48405 0.0
9.72267 -3.21488 0.0
9.2772 -1.92247 0.0
8.74545 -0.667216 0.0
8.17803 0.481703 0.0
7.72453 1.44978 0.0
5.39004 5.79055 0.0
1.45815 9.12425 0.0
0.270684 9.60615 0.0
-1.87919 9.69984 0.0
-3.05341 9.27431 0.0
-4.25972 9.03173 0.0
-5.50398 9.10391 0.0
-6.40059 8.11239 0.0
-7.49143 7.30938 0.0
-8.69579 6.47981 0.0
-10.5323 3.00211 0.0
-10.0645 5.50583 0.0
8.114 2.53254 0.0
10.0497 1.56346 0.0
-11.166 13.5136 0.0
-9.86824 13.6507 0.0
-7.45759 12.701 0.0
21.4897 -8.85105 0.0
20.2144 -8.8528 0.0
18.9554 -8.91506 0.0
17.7271 -8.96149 0.0
16.5155 -8.99053 0.0
15.3019 -8.98002 0.0
12.0431 -10.1412 0.0
14.0231 -8.91252 0.0
22.0677 -0.542369 0.0
21.974 -1.62317 0.0
21.9428 -2.8992 0.0
21.9237 -4.20306 0.0
21.9242 -5.51265 0.0
21.9478 -6.80144 0.0
11.8925 0.599912 0.0
13.058 0.557088 0.0
14.2628 0.510007 0.0
15.4805 0.47902 0.0
16.6988 0.453818 0.0
[...]
CELL_DATA 2394
SCALARS U_var0 double
LOOKUP_TABLE default
-4.28299
-4.90477
-4.31863
-4.61584
-4.37287
-4.43235
-4.64285
-4.44209
25.9375
25.3906
10.1223
10.3595
10.3246
9.92112
10.1665
10.1191
9.81522
9.72458
9.51589
9.68529
10.1813
9.87871
9.98808
10.0123
0.538592
0.259218
0.261299
0.351461
-0.035035
-0.338475
-0.299467
-0.222793
0.0352068
-0.150541
0.0737737
-0.173971
0.106794
0.0115112
-19.1701
19.0465
25.6072
23.3297
22.0981
21.4909
20.267
16.0276
17.2264
17.8272
16.6075
14.7898
13.5697
10.8976
11.3609
11.3024
25.9375
25.3916
21.502
25.9789
25.9734
25.9728
25.6049
19.66
25.6069
20.8779
25.4638
25.601
26.0106
8.15556
8.28385
8.49882
8.32109
8.42481
8.56191
8.76185
8.59322
8.83062
8.9611
9.16146
8.98351
8.43805
8.78469
8.65283
8.6293
7.46975
7.54034
7.05555
6.69464
6.801
6.84769
7.26563
6.90473
7.0059
7.05605
7.20304
6.95373
7.3085
7.14792
10.7901
11.3965
11.0229
-5.38027
-5.48032
-5.1771
-5.35719
-4.90084
-5.27187
-5.47634
11.815
-6.46528
13.008
-1.87057
-2.17573
-2.02084
-2.02254
-2.48698
-2.80482
-2.60612
-2.63357
-2.09047
-2.27635
-2.32163
-2.42778
-2.14228
-2.28988
14.814
18.443
15.4279
25.604
18.4558
25.6102
22.7349
24.5821
-26.057
4.75273
4.39819
4.52937
4.55956
4.22608
4.20932
4.12852
-7.58767
-7.65167
-7.34625
-7.53503
-7.68166
-7.73783
-7.03582
-7.34422
-7.55188
-6.65812
-6.93108
-6.65885
-6.75185
-7.20373
-7.4781
-7.22505
-7.30426
-6.65565
-6.84896
-7.02555
-7.03616
-6.74971
-6.9372
-5.61843
-5.76566
-5.61849
-5.54695
-5.82537
-5.66205
-6.11594
-6.10123
-6.38099
-6.20213
-5.70893
-5.92996
-5.94217
-5.85708
-4.41033
-4.60677
-4.42644
-4.35386
-4.65041
-4.4767
-5.02303
-4.94985
-5.25389
-5.07674
-4.52775
-4.77097
-4.82374
-4.69857
-4.74717
1.69407
1.36897
1.6679
1.58126
0.967167
1.63838
1.48564
1.27947
3.46025
3.64064
3.82004
3.63773
3.81445
3.98185
4.18342
3.99056
4.25619
4.38087
3.81789
4.18162
3.99725
3.99219
3.37486
3.23888
3.74102
4.08432
3.91245
3.911
3.35792
3.72938
3.53924
3.54376
3.58319
3.73476
3.38428
3.57549
5.88965
5.828
6.17487
6.05403
6.00895
6.60333
6.36237
6.28529
6.36579
7.02987
7.10464
6.61669
6.25764
6.37056
6.4123
6.83934
6.48063
6.58787
6.63327
6.76591
6.52476
6.87765
6.71572
7.88792
7.95585
7.47089
7.10696
7.20793
7.25921
7.67212
7.30659
7.40303
7.45785
7.61769
7.36021
7.71894
7.55829
12.3916
-25.5103
-25.7275
-23.4497
-22.2184
-21.6124
-20.3895
-16.1002
-17.9525
-7.57209
-8.05501
-7.43058
-7.65639
-7.33797
-7.46737
-7.77528
-7.62164
-16.7361
-13.7044
-11.9575
-9.62719
-9.92401
-9.79677
-9.78587
-10.2298
-10.5345
-10.4214
-10.3918
-9.93864
-10.2453
-10.0605
-10.0668
-10.0849
-10.2671
-9.94267
-10.0926
-26.057
-25.5109
-21.6239
-26.0961
-26.0877
-26.0851
-25.7108
-19.7812
-25.7158
-20.9986
-25.5837
-25.7213
-26.1303
-12.5023
-17.3285
-13.0433
-14.1953
-15.4356
-25.7111
-18.5598
-25.7221
-22.8564
-24.7014
10.0047
9.73401
9.81098
9.84713
9.47118
9.18213
9.25013
9.302
9.6025
9.31975
9.39151
9.43884
9.58239
9.36795
9.6465
9.53103
11.8103
14.8423
9.35252
9.41688
8.93179
8.57101
8.65656
8.71697
9.11168
8.73991
8.81968
8.88663
9.07546
8.80407
9.16904
9.00815
13.0265
5.63116
5.33668
5.16163
5.01506
4.78322
4.97628
5.27173
5.36966
7.96632
7.81038
7.61409
7.79944
7.65428
7.49806
7.29993
7.48659
7.20587
7.10071
7.64284
7.29524
7.45265
7.47046
9.01273
8.76882
8.59573
8.48875
8.26832
8.44212
8.71113
8.78515
7.32865
6.9775
7.1418
7.15906
6.54192
6.88112
6.91752
6.80697
5.80865
6.18779
6.29353
6.47043
6.67831
6.49157
6.22499
6.10457
6.06027
5.90639
5.69801
5.88615
5.74268
5.57944
5.34977
5.56212
5.30237
5.17136
5.72858
5.35094
5.53886
5.54919
4.69141
4.55498
5.07357
5.42375
5.26557
5.25252
4.7107
5.09741
4.92879
4.91695
4.91501
5.0893
4.71955
4.91769
4.04152
3.90237
4.41884
4.76727
4.60323
4.59474
4.04546
4.42881
4.25326
4.24698
4.25942
4.42566
4.05938
4.25775
6.12044
5.88297
5.68431
5.55963
5.3282
5.5136
5.79759
5.8797
4.15834
4.52837
4.35273
4.33635
4.99497
4.62262
4.59268
4.7118
2.38445
2.28052
2.91992
3.34306
3.14577
3.14159
2.58016
2.95336
2.76595
2.77244
2.71843
2.94886
2.55541
2.74318
5.749
5.49029
-9.91097
-9.73994
-9.60518
-9.74817
-9.23371
-9.47053
-9.29878
-9.07894
-8.9879
-9.12506
-9.56877
-9.22448
-9.43778
-9.4096
6.03046
5.66284
5.76335
5.82117
5.37469
5.43578
5.37903
2.62319
2.37869
2.43425
2.48376
2.1334
1.88206
1.85834
1.95968
2.13012
1.92428
2.22066
1.96197
2.25909
2.15057
-14.892
-6.47855
-6.48849
-6.21818
-6.40192
-5.90453
-6.08399
-6.18327
-6.43874
-6.36244
-1.90414
-1.71613
-2.07633
-1.90005
-1.49242
-2.2803
-2.02537
-1.77905
-14.9191
-10.946
-11.5772
-11.2401
-11.1441
-11.4138
-10.2366
-10.3383
-10.048
-10.2015
-10.4322
-10.5286
-10.237
-10.3932
-9.85212
-9.93681
-9.63921
-9.81069
-10.3115
-10.1049
-10.0137
-10.1404
-5.46059
-5.45752
-5.72547
-5.54307
-5.48731
-6.04363
-5.78344
-5.60279
-19.7724
-11.9868
-9.28793
-9.56081
-9.39035
-9.414
-9.83169
-10.114
-9.92347
-9.95432
-9.47287
-9.73299
-9.52859
-9.58094
-9.68227
-9.77003
-9.50635
-9.65147
-10.5225
-10.4529
-11.055
-10.6974
-10.6352
-10.6988
9.80103
10.0994
9.97636
9.77409
10.1857
9.99677
9.53247
9.49266
9.23974
9.4209
9.99221
9.67235
9.71071
9.77882
12.9435
8.59116
8.43039
8.25863
8.4301
8.27334
8.12016
7.9185
8.10754
7.81443
7.69504
8.26463
7.91102
8.08565
8.09136
8.74691
8.59666
8.89166
8.74462
8.41579
8.18807
8.52632
8.3811
9.03572
8.85097
9.18044
9.02284
8.58054
8.70068
8.88339
8.72022
-15.5202
-9.04328
-9.26409
-9.3353
-9.21695
-9.4245
-9.5153
-9.66234
-9.53955
-9.62471
-9.78907
-9.92123
-9.77796
-9.40529
-9.65867
-9.49382
-9.51667
-8.14471
-8.31028
-8.53125
-8.3179
-8.53017
-9.04683
-8.70134
-8.54755
-9.17195
-9.04777
-9.35936
-9.19328
-8.91841
-8.78157
-9.14069
-8.94571
-9.55931
-9.47821
-9.84428
-9.60484
-9.07285
-9.29169
-9.39215
-9.25115
24.5811
23.9972
22.7285
25.9734
25.9744
25.9714
25.9743
25.6026
14.2161
25.6056
8.96285
9.02754
8.56297
8.22203
8.31264
8.36307
8.74995
8.40042
8.48561
8.54263
8.70251
8.455
8.79771
8.64497
25.9748
19.6433
16.009
15.3851
14.1601
10.0499
9.6162
9.67239
9.75925
9.2563
8.89673
8.97436
9.0408
9.37508
9.04636
9.1148
9.17839
9.39988
9.1136
9.45307
9.32361
24.5034
17.1909
12.3589
10.3518
10.9387
10.4926
10.5727
10.8755
10.9872
10.3905
10.6289
10.6599
14.1193
26.0116
25.6483
19.67
22.1023
16.6414
17.8685
20.2617
8.72673
25.607
14.2311
21.4927
17.2417
22.7382
12.4701
24.0599
24.8724
24.717
20.8743
24.8673
25.9718
24.485
25.9775
24.8992
25.6459
10.3866
10.0912
10.2135
10.2248
9.78668
9.48105
9.59866
9.62192
10.0347
9.72053
9.83856
9.8608
9.92847
9.7431
10.0595
9.90815
10.5189
10.4064
10.1891
10.0567
10.7522
10.4068
8.2979
8.36271
7.87053
7.49969
7.59633
7.65259
8.05759
7.69009
7.77848
7.8374
8.0184
7.74865
8.1144
7.95277
7.52112
7.30108
7.08824
6.97968
6.74013
6.92587
7.21444
7.28711
13.6469
13.6015
18.4161
9.62942
9.76558
24.8689
15.9622
24.8602
13.635
17.8553
24.874
19.0693
20.284
20.9095
24.4929
20.8848
24.7218
23.332
19.0821
24.0003
22.1307
25.4657
24.0659
-7.75802
-8.05341
-7.82526
-7.87899
-8.36689
-8.6782
-8.46006
-8.50216
-7.91107
-8.2324
-7.99559
-8.05017
-8.18638
-8.28
-7.9549
-8.14159
-2.97266
-3.63828
-3.07447
-3.3945
-3.1838
-3.21545
-3.38285
-3.16691
-0.569793
-0.273169
-0.627011
-0.493687
0.094535
-0.679676
-0.473044
-0.230979
-0.545438
-4.17768
-4.27413
-3.9603
-4.14821
-3.67155
-4.04008
-4.2508
1.23142
0.766367
-3.19574
-3.3904
-3.20489
-3.11658
-3.42078
-3.2477
-3.80595
-3.73008
-4.04608
-3.86226
-3.30878
-3.54796
-3.60458
-3.47878
-2.9468
-3.05785
-2.76145
-2.93088
-2.53748
-2.84424
-3.03947
-1.72403
-1.89723
-1.61289
-1.75239
-1.49069
-1.75389
-1.93905
-5.24915
-1.00538
-1.1951
-0.853237
-0.638278
-0.936844
-0.809998
-1.43829
-1.24487
-1.56037
-1.41413
-0.994753
-1.10473
-1.2837
-1.1194
-0.520607
-0.755608
-0.48924
-0.594699
-0.472989
-0.686192
-0.857717
0.613672
0.32201
0.530029
0.487251
0.352724
0.292935
0.16652
-4.00866
0.850439
0.657363
1.28252
1.6228
1.35694
1.42353
0.723401
1.08525
0.811125
0.878077
1.0763
1.15025
0.790946
1.01062
-2.79848
2.4016
2.95772
2.93615
3.16817
3.34375
3.15851
2.91336
2.75181
-5.52071
4.07594
3.72579
3.86319
3.8874
3.57374
3.54849
3.46369
-0.515669
0.660386
0.994394
0.695774
0.777085
1.40134
0.77934
0.8903
1.09182
-1.34958
2.47285
1.95915
2.06488
1.81268
1.72926
1.86135
2.01565
2.18477
1.3719
1.67429
5.40435
5.04839
5.17068
5.20795
4.84876
4.84924
4.77495
2.65014
2.98655
2.76679
2.79288
3.40057
2.94904
2.97455
3.12228
3.05742
5.8097
5.68203
6.29451
6.6965
6.53235
6.51074
5.94182
6.36885
6.2104
6.17958
6.1066
6.34224
5.92158
6.13272
3.45184
3.801
3.60526
3.61028
4.23674
3.82755
3.82652
3.95876
1.78216
2.02018
2.12387
1.97324
2.24864
2.46788
2.58929
2.43311
2.54239
2.6993
2.20828
2.5473
2.31329
2.35077
6.54175
6.42723
6.97459
7.33964
7.17926
7.16713
6.64042
7.01894
6.85885
6.8421
6.80389
7.00424
6.63443
6.82142
7.4823
7.7639
7.95448
7.61375
7.78727
7.19801
7.54368
7.44445
4.93831
8.30014
8.04324
8.12063
8.4697
8.59499
8.29044
8.46573
7.81187
8.33793
8.06567
8.21356
2.68037
2.88634
3.02512
2.86167
3.0844
3.27485
3.43401
3.26203
3.44523
3.58438
3.06614
3.41209
3.20551
3.22186
-24.7008
-24.1173
-22.8492
-26.0925
-26.092
-26.0912
-26.0874
-25.7219
-25.7228
-18.5649
-26.0901
-17.3494
-16.1342
-6.27528
-6.0385
-6.31813
-6.20912
-5.79501
-5.54483
-5.81495
-5.71679
-6.33147
-6.16009
-5.96658
-5.98938
-6.24372
-6.06279
-14.3046
-14.6291
-13.0962
-18.5485
-12.4964
-17.2395
-11.0931
-10.2054
-10.5316
-10.3347
-10.6782
-10.7497
-10.7509
-16.1105
-6.56982
-7.08122
-6.48726
-6.73176
-6.44597
-6.54893
-6.81639
-6.6512
-10.9924
-11.4654
-11.3972
-26.1304
-25.7648
-19.7847
-22.2234
-16.684
-17.8996
-20.3875
-23.8397
-25.7205
-14.0548
-21.6165
-17.3313
-22.8603
-12.7773
-24.1807
-24.9701
-24.8376
-21.0006
-24.9888
-26.0918
-24.6066
-26.0974
-25.0199
-25.766
-7.32899
-7.17084
-7.26016
-7.16518
-6.95261
-7.12416
-6.80023
-6.73313
-6.50696
-6.67839
-7.20812
-6.9049
-6.97449
-7.02442
-8.81269
-9.0646
-9.172
-9.00814
-9.44505
-9.8274
-9.55835
-9.40314
-9.33821
-8.64023
-8.48826
-8.90006
-8.67114
-8.32249
-8.14468
-8.54777
-8.3344
-9.19999
-9.07627
-8.51213
-8.7473
-8.92861
-8.72356
-13.6456
-6.67672
-14.8686
-24.9579
-12.8386
-24.9521
-16.1
-17.9294
-24.9786
-19.1685
-20.3994
-21.0365
-24.5732
-21.005
-24.8389
-23.4519
-19.165
-24.1201
-22.2593
-25.5843
-24.1842
9.71583
10.0266
9.62734
9.315
9.24749
8.96416
9.16692
9.51532
9.55821
12.2074
9.41346
9.21407
8.97485
8.88195
8.62903
8.81805
9.11623
9.17946
15.3581
10.9109
11.2209
8.50122
8.57576
8.16195
7.86053
7.9465
7.99181
8.35815
8.03866
8.13036
8.17355
8.28085
8.07932
8.38747
8.24353
7.91536
8.21778
8.18578
8.10246
8.57219
8.45206
8.46338
11.8375
8.35892
8.15069
7.91151
7.81116
7.5546
7.74846
8.05283
8.12039
10.0318
10.7304
10.2861
7.94423
7.73461
7.50766
7.4045
7.15707
7.34609
7.64164
7.71076
9.5909
9.37774
8.95381
8.73084
9.21798
9.14639
7.07491
6.84157
6.64468
6.52943
6.29807
6.48072
6.76182
6.83893
12.4327
6.56364
6.64266
6.15105
5.79215
5.91244
5.94928
6.38707
6.02972
6.14402
6.18431
6.30228
6.0688
6.42056
6.25688
8.58263
8.7233
5.29452
5.42346
5.66167
5.45728
5.5489
5.67102
5.90917
5.70712
6.07999
6.16166
5.58432
5.93972
5.81661
5.77308
7.85083
7.72498
7.17219
7.254
7.37379
6.30715
6.4625
5.5894
5.67628
5.14215
4.75368
4.89554
4.92725
5.40886
5.0322
5.16427
5.19891
5.30841
5.06634
5.44013
5.26431
6.47532
4.98875
5.09895
4.52826
4.14564
4.30574
4.32354
4.84959
4.46012
4.60861
4.63618
4.70546
4.48366
4.86852
4.67866
5.25837
5.72238
5.74031
6.1773
4.30871
4.60446
1.50777
1.69101
1.08049
0.740927
1.01638
0.943726
1.62242
1.28139
1.53594
1.47777
1.28435
1.21663
1.55725
1.34783
3.69775
-0.450247
-0.138713
-0.145923
-0.246895
0.163891
0.456565
0.490927
0.368417
0.265511
0.485271
0.0664083
0.391384
0.0672424
0.171391
2.3776
-1.74501
-1.41816
-1.54448
-1.56927
-1.0917
-0.768867
-0.833326
-0.899077
-1.2358
-0.983668
-1.23296
-0.983351
-1.35077
-1.19037
-1.14316
-3.01455
-2.70514
-2.90134
-2.87307
-2.39014
-2.06998
-2.24439
-2.23395
-2.73131
-2.50647
-2.55684
-2.41959
-2.75243
-2.57586
-8.3225
-8.77544
-4.03518
-3.8265
-4.1434
-4.20039
-3.91283
-4.08464
-3.53338
-3.61895
-3.31933
-3.48985
-4.01906
-3.79042
-3.70994
-3.83789
-13.0758
-4.16003
-5.2446
-5.0551
-5.28535
-5.28874
-5.02697
-5.19905
-4.72941
-4.75813
-4.48237
-4.65542
-5.1879
-4.93108
-4.90676
-5.00571
-14.29
-12.4006
-12.1868
-5.50089
-8.26591
-8.11616
-8.12796
-7.95986
-7.77081
-7.95073
-7.70213
-7.57504
-7.37279
-7.54793
-8.10097
-7.75261
-7.88216
-7.90553
-10.4748
-11.1358
-10.755
-10.1313
-9.86235
-10.0364
-10.0023
-9.59022
-9.30823
-9.49352
-9.46372
-9.69364
-10.022
-9.90087
-9.74234
-9.66064
-9.93708
-9.78296
-12.4378
-10.2758
-10.2105
-10.5619
-10.2163
-11.7233
8.70627
9.03733
8.91415
8.88989
9.35766
9.67548
9.55211
9.52931
9.11183
9.43057
9.31127
9.28404
9.20983
9.40659
9.08772
9.23596
6.89287
-8.96538
-8.22928
-8.39284
-8.8987
-8.59301
-8.81035
-8.76726
-8.57339
-8.7759
-13.6555
23.4022
24.4845
22.1097
24.8696
24.872
24.8637
24.4985
19.0352
17.8115
9.20425
9.37414
17.2679
16.5876
14.722
18.3993
10.0848
10.3223
19.0064
17.1726
13.469
9.78542
12.8835
24.9044
24.4989
21.5147
24.4935
16.6544
17.281
24.5038
19.6312
24.5053
20.8694
22.108
14.0366
23.3387
22.6643
23.8034
23.748
23.7679
24.8535
24.4909
23.3919
11.2261
8.16194
8.30243
9.02595
9.79422
17.7765
8.29934
15.4413
23.7724
16.0541
23.7606
23.7116
13.6525
18.4817
19.6948
20.3171
23.4051
20.2961
23.3537
22.7507
18.4955
23.4133
22.136
-7.01906
-7.47592
-2.76161
-6.71352
-5.93398
-3.51632
-2.74318
-2.3188
-1.64304
0.188425
-4.25908
-3.76816
-0.00211873
0.890838
-1.84007
-3.08551
2.45075
2.05618
3.08582
2.20826
-0.331773
0.200373
3.73984
4.35647
3.2544
2.34755
4.903
4.19134
2.93646
6.47955
6.25089
4.39507
7.1023
6.91724
7.80156
7.17545
7.62515
-23.5242
-24.6068
-22.2336
-24.9853
-24.9801
-24.9837
-24.6167
-19.1633
-24.6142
-17.9429
-16.7249
-15.5077
-7.77084
-18.5386
-13.6693
-15.3366
-10.2486
-10.4819
-11.0872
-10.6638
-10.6953
-17.9223
-16.7037
-12.4302
-4.91391
-11.9118
-25.0194
-24.6072
-21.642
-24.5852
-16.622
-17.1992
-24.5888
-19.7658
-24.6041
-20.9993
-22.234
-13.65
-23.4619
-17.1347
-23.9263
-23.8722
-23.8777
-24.975
-24.6126
-23.5165
-9.87047
-10.1634
-9.9533
-8.8276
-13.3004
-19.1468
-8.18887
-15.9392
-23.8099
-23.7903
-13.7606
-18.5266
-19.7945
-20.4579
-23.4456
-20.4127
-23.4703
-22.8741
-18.5172
-23.5337
-22.27
10.2099
14.6942
15.9426
12.1148
9.42937
12.4463
18.984
9.16324
11.2284
13.0579
10.0105
10.1297
7.72644
7.8738
8.09704
9.10998
7.2629
7.41913
8.62833
6.77832
6.93878
6.52878
8.24328
8.4944
8.77485
8.3613
5.83902
6.03558
7.47319
5.0718
5.32504
5.06632
4.24604
4.52299
5.60786
3.34398
3.64778
2.35742
2.702
3.56949
4.32424
1.18349
1.60398
0.889945
0.979641
-0.371715
2.36569
-2.23808
-1.69652
-3.60769
-3.158
-7.66897
-4.47673
-5.00156
-4.96107
-4.54004
-5.87573
-6.15328
-5.77761
-7.23096
-6.88475
-14.8813
-8.26423
-7.93494
-9.30871
-8.94584
-10.647
-15.4865
6.52269
8.3325
8.23962
8.02046
7.93414
7.66849
7.98948
7.32224
9.72907
9.96794
9.5875
-9.66921
-9.98234
-10.0934
-10.3228
-10.0099
-16.0837
-10.571
-7.82689
22.6731
23.6962
23.3282
21.4861
20.2447
23.7711
14.8537
22.1536
10.4125
21.4858
16.5497
10.7567
21.5904
15.3107
13.4141
15.3191
11.3672
11.7188
11.4201
16.532
23.816
23.4093
21.5291
23.346
16.0659
22.3204
23.4067
20.2312
16.6793
23.4022
19.5582
23.3992
22.666
23.7637
23.3915
22.2934
22.7189
22.64
11.8535
9.54295
11.0872
13.0521
14.2544
17.7538
15.4645
22.6851
22.665
14.2605
17.8953
19.1076
22.1899
15.4734
19.7066
20.9187
22.6963
19.7296
22.7442
21.5352
-6.2996
-3.60072
-2.35482
-4.24227
-2.55286
-2.89143
-1.18975
-2.0064
-0.181326
-3.20586
0.748581
1.6578
0.6698
0.318435
2.04769
-0.508867
2.99719
3.58927
2.79771
2.20708
3.79824
2.75729
6.4572
6.86277
3.68073
5.16649
-22.7984
-23.8209
-23.4547
-21.6156
-20.3795
-23.8627
-14.5084
-22.2849
-23.5022
-17.3178
-9.0842
-19.1338
-14.2654
-21.6117
-7.85525
-17.9103
-13.0324
-11.7749
-11.1993
-15.4798
-23.9234
-23.4998
-21.68
-23.3939
-15.8618
-22.3478
-23.4797
-20.3727
-21.6191
-17.2962
-19.7212
-23.5161
-19.746
-23.8839
-23.5166
-22.4103
-22.8458
-22.771
-11.2076
-10.2406
-11.814
-11.4566
-13.1268
-16.6941
-15.1385
-22.6948
-16.5042
-22.6195
-17.8499
-19.1736
-22.3335
-15.046
-19.8124
-21.0638
-22.8214
-19.8913
-22.8491
-22.1943
10.9064
14.6659
12.6417
10.6352
14.8688
10.3572
17.1322
9.95658
9.36564
10.0847
8.9395
8.7991
10.9096
8.48987
10.0827
7.99181
9.50092
7.48221
7.60118
7.06885
4.73343
5.95679
1.19117
1.74015
-0.108783
0.993689
-0.456163
-1.62955
-3.20286
-3.9838
-9.79313
-3.50108
-9.32812
-5.62754
-7.90457
-6.85943
-5.3926
-7.0395
-14.2615
-8.08455
-11.024
-11.7422
-9.37257
-10.3767
8.24042
7.84734
7.82656
8.22194
9.42465
10.6322
-9.71196
-10.1749
-13.0308
-9.20606
-13.6596
-6.8703
-5.28867
20.8557
22.3011
19.5954
22.6747
18.3542
12.9421
11.9579
17.911
17.6905
15.9146
15.3004
14.0187
13.3017
12.7361
11.9674
17.1029
22.3596
18.527
16.6898
16.0937
22.3012
20.8504
21.4573
16.0853
16.115
22.6626
22.3339
21.1745
10.5038
11.8715
10.3215
13.6589
18.3203
12.3879
21.6458
13.0414
17.0081
17.3072
21.5015
20.5016
19.1234
22.1664
19.1693
20.3242
-6.61955
-5.27115
-2.03935
-3.69253
-1.60763
-0.959484
-0.780006
0.231178
-0.248949
-1.66234
0.602119
-1.22817
1.07769
1.6604
-20.996
-22.4332
-22.7385
-22.7966
-18.5137
-14.2737
-16.0785
-17.836
-14.8706
-17.8826
-9.14732
-18.497
-12.4127
-11.8138
-8.31286
-15.4762
-22.2848
-18.5158
-16.4537
-21.2689
-22.3849
-20.9977
-22.7656
-22.7853
-21.6004
-17.1129
-22.4686
-19.0924
-12.2304
-12.6251
-13.6183
-17.2851
-15.4794
-15.7187
-21.5436
-13.3596
-21.1031
-14.8905
-19.1861
-21.4191
-19.879
-20.5243
11.6764
14.0944
11.4106
11.6351
15.9063
11.2897
10.722
11.3405
9.89579
16.4473
9.43538
12.46
10.6808
11.9068
9.45027
11.822
-0.055102
-1.17279
-0.39335
-2.57444
-4.15889
-3.05858
-4.26277
-4.84261
-10.5128
-6.20378
-7.12098
-11.1547
-9.58504
-6.52195
-10.2207
-11.1458
-14.8722
-11.8183
11.295
10.1626
8.77942
8.82638
-11.7885
-9.11168
-8.30813
-13.7059
-5.79929
-5.81307
-7.3936
-11.2277
22.1304
21.61
20.1888
21.1757
21.5647
18.9129
14.8729
21.5429
18.8672
16.4944
13.3503
11.6847
12.5929
14.693
21.2414
17.9514
21.2054
17.3118
21.5618
20.0853
21.2056
20.4699
20.5244
18.2269
12.25
11.8792
11.2865
14.2583
15.4859
13.5843
13.5383
16.7029
20.1328
16.9335
18.5628
20.3242
20.9218
20.9319
19.3734
19.7396
-4.71236
-4.20846
-3.35517
-2.8455
-1.43106
-2.29336
-22.2644
-21.7537
-20.3496
-21.3263
-21.2959
-21.7106
-14.8827
-21.359
-19.0687
-16.6779
-14.2727
-15.5954
-13.0579
-17.8678
-14.3343
-16.6713
-21.166
-21.7158
-21.2175
-17.8404
-16.3752
-16.0777
-21.6515
-20.2595
-20.544
-21.674
-20.6944
-20.2017
-11.6081
-10.9183
-12.4347
-14.167
-15.662
-20.4925
-20.133
-13.9732
-18.542
-19.3909
-19.2
-20.4175
12.7367
14.8405
17.6428
15.8847
12.0426
13.6067
12.3343
16.2237
12.2147
13.2577
11.4655
10.8697
-2.10744
-1.79247
-6.04014
-7.02524
-8.07513
-10.5676
-14.8077
-10.3583
-10.48
-10.9112
-8.70972
-9.65906
-12.4302
-8.25791
-12.5029
-11.167
-5.50878
-4.6348
-7.19464
-6.3988
19.4091
19.9895
20.0749
20.3737
13.869
20.0814
15.3446
19.3493
13.6779
17.5114
20.115
17.2678
18.8147
17.8973
14.2504
20.4231
19.4135
19.2327
11.1067
10.8042
12.7019
13.0005
14.2535
14.8792
15.4971
16.8019
16.713
19.0143
16.1395
18.3516
-1.05268
-0.786824
-19.6075
-20.1806
-20.5576
-18.4586
-20.5711
-17.2638
-18.0334
-16.0751
-10.7416
-17.8377
-14.2878
-11.7042
-20.1617
-17.7982
-19.0739
-18.3409
-20.2773
-16.9055
-19.6302
-19.5074
-13.2408
-15.4951
-16.6613
-12.9368
-16.3836
-19.1145
-17.079
-19.4428
15.0741
14.2165
13.3383
14.2543
14.8225
13.0003
12.8584
13.9554
-7.21975
-7.5805
-9.45235
-10.5868
-12.3076
-12.1909
-12.575
-11.4617
-13.0891
-10.7635
-11.8598
-10.0558
-9.83561
-8.78648
-10.0948
-8.59256
18.17
15.5448
14.6411
17.9922
17.4362
15.7357
19.3872
19.0165
18.9408
17.9796
18.7122
17.339
14.9025
15.5158
17.3323
14.3577
18.2716
16.1699
-18.4411
-17.2127
-18.3649
-17.2512
-14.9036
-16.221
-13.7963
-16.0965
-17.2695
-19.0315
-19.4912
-18.487
-19.1875
-19.0301
-14.8735
-11.9234
-14.3415
-15.5949
15.0278
16.7867
-13.1946
-9.56804
-11.326
-10.981
-14.9294
-13.7392
-12.0301
-13.7299
-9.36105
-9.88777
16.1752
18.3032
17.9668
16.1521
15.5613
15.5705
16.812
16.7589
-17.8053
-15.52
-17.3456
-16.6552
-13.0932
-16.2729
-15.0332
-15.3086
-12.699
-13.263
-18.3957