# vtk DataFile Version 3.0
FirstorderEuler solution
ASCII
DATASET UNSTRUCTURED_GRID
POINTS 673 float
26.342241 -13.28699 0.0
9.342241 -13.28699 0.0
25.127955 -13.28699 0.0
23.91367 -13.28699 0.0
22.699384 -13.28699 0.0
21.485098 -13.28699 0.0
20.270812 -13.28699 0.0
19.056527 -13.28699 0.0
17.842241 -13.28699 0.0
16.627955 -13.28699 0.0
15.41367 -13.28699 0.0
14.199384 -13.28699 0.0
12.985098 -13.28699 0.0
11.770812 -13.28699 0.0
10.556527 -13.28699 0.0
26.342241 4.71301 0.0
26.342241 3.427296 0.0
26.342241 2.141581 0.0
26.342241 0.855867 0.0
26.342241 -0.429847 0.0
26.342241 -1.715561 0.0
26.342241 -3.001276 0.0
26.342241 -4.28699 0.0
26.342241 -5.572704 0.0
26.342241 -6.858419 0.0
26.342241 -8.144133 0.0
26.342241 -9.429847 0.0
26.342241 -10.715561 0.0
26.342241 -12.001276 0.0
9.342241 4.71301 0.0
10.556527 4.71301 0.0
11.770812 4.71301 0.0
12.985098 4.71301 0.0
14.199384 4.71301 0.0
15.41367 4.71301 0.0
16.627955 4.71301 0.0
17.842241 4.71301 0.0
19.056527 4.71301 0.0
20.270812 4.71301 0.0
21.485098 4.71301 0.0
22.699384 4.71301 0.0
23.91367 4.71301 0.0
25.127955 4.71301 0.0
-9.461749 16.762785 0.0
-8.851018 15.727887 0.0
-7.643912 15.833538 0.0
-6.56175 16.497727 0.0
-5.421878 17.057547 0.0
-4.22328 17.474446 0.0
-2.97506 17.703168 0.0
-1.706546 17.717887 0.0
-0.454967 17.510251 0.0
0.738528 17.081097 0.0
1.813986 16.410046 0.0
2.738939 15.541466 0.0
3.54016 14.556472 0.0
4.262391 13.511657 0.0
4.943851 12.439681 0.0
5.599125 11.351471 0.0
6.240279 10.254863 0.0
6.877149 9.155758 0.0
7.509236 8.053899 0.0
8.132212 6.946866 0.0
8.743389 5.833275 0.0
-26.461749 16.762785 0.0
-25.247463 16.762785 0.0
-24.033178 16.762785 0.0
-22.818892 16.762785 0.0
-21.604606 16.762785 0.0
-20.39032 16.762785 0.0
-19.176035 16.762785 0.0
-17.961749 16.762785 0.0
-16.747463 16.762785 0.0
-15.533178 16.762785 0.0
-14.318892 16.762785 0.0
-13.104606 16.762785 0.0
-11.89032 16.762785 0.0
-10.676035 16.762785 0.0
-26.461749 -1.237215 0.0
-26.461749 0.048499 0.0
-26.461749 1.334214 0.0
-26.461749 2.619928 0.0
-26.461749 3.905642 0.0
-26.461749 5.191356 0.0
-26.461749 6.477071 0.0
-26.461749 7.762785 0.0
-26.461749 9.048499 0.0
-26.461749 10.334214 0.0
-26.461749 11.619928 0.0
-26.461749 12.905642 0.0
-26.461749 14.191356 0.0
-26.461749 15.477071 0.0
-9.461749 -1.237215 0.0
-10.676035 -1.237215 0.0
-11.89032 -1.237215 0.0
-13.104606 -1.237215 0.0
-14.318892 -1.237215 0.0
-15.533178 -1.237215 0.0
-16.747463 -1.237215 0.0
-17.961749 -1.237215 0.0
-19.176035 -1.237215 0.0
-20.39032 -1.237215 0.0
-21.604606 -1.237215 0.0
-22.818892 -1.237215 0.0
-24.033178 -1.237215 0.0
-25.247463 -1.237215 0.0
9.057562 -12.04808 0.0
8.752682 -10.813986 0.0
8.427982 -9.584959 0.0
8.084412 -8.36107 0.0
7.72396 -7.142045 0.0
7.348469 -5.927565 0.0
6.956232 -4.718396 0.0
6.542915 -3.516277 0.0
6.104204 -2.323199 0.0
5.635914 -1.141429 0.0
5.131587 0.025386 0.0
4.580287 1.170706 0.0
3.970726 2.286035 0.0
3.285322 3.35621 0.0
2.500708 4.355551 0.0
1.591849 5.24254 0.0
0.539945 5.952305 0.0
-0.6477 6.394399 0.0
-1.911401 6.481296 0.0
-3.151754 6.218126 0.0
-4.311916 5.702591 0.0
-5.375063 5.007718 0.0
-6.338326 4.179341 0.0
-7.202162 3.247593 0.0
-7.962143 2.229297 0.0
-8.611319 1.137018 0.0
-9.155683 -0.011337 0.0
10.044371 -12.43646 0.0
8.024035 4.75629 0.0
-10.026781 15.712465 0.0
-10.302207 -0.12462 0.0
24.710163 -12.117687 0.0
23.387221 -12.125543 0.0
22.117317 -12.170608 0.0
20.880961 -12.194029 0.0
19.654245 -12.208596 0.0
18.433619 -12.217683 0.0
17.216868 -12.222535 0.0
16.001968 -12.224578 0.0
14.787139 -12.223512 0.0
13.560909 -12.222768 0.0
12.321164 -12.237015 0.0
11.082715 -12.284774 0.0
25.348686 2.58488 0.0
25.254061 1.506492 0.0
25.23733 0.239748 0.0
25.232954 -1.045487 0.0
25.237431 -2.334798 0.0
25.239418 -3.62226 0.0
25.239917 -4.908701 0.0
25.241196 -6.194431 0.0
25.243627 -7.484297 0.0
25.249476 -8.779399 0.0
25.264265 -10.06036 0.0
25.358205 -11.148698 0.0
9.947555 3.636152 0.0
11.172442 3.639903 0.0
12.392517 3.64298 0.0
13.610558 3.646116 0.0
14.826653 3.648657 0.0
16.041421 3.650269 0.0
17.255549 3.651029 0.0
18.469503 3.651203 0.0
19.681683 3.651235 0.0
20.890888 3.644962 0.0
22.112344 3.621685 0.0
23.377226 3.569633 0.0
24.703001 3.551931 0.0
-8.032707 14.833627 0.0
-6.80688 15.195282 0.0
-5.615704 15.68612 0.0
-4.423453 16.141555 0.0
-3.230873 16.512181 0.0
-2.24284 16.84127 0.0
-1.217096 16.630781 0.0
-0.17984 16.518806 0.0
0.657278 15.818978 0.0
1.888099 14.825833 0.0
2.810961 13.504387 0.0
3.596001 12.387648 0.0
4.303569 11.308179 0.0
4.964312 10.228941 0.0
5.617594 9.138982 0.0
6.288627 8.055317 0.0
6.934845 7.00807 0.0
7.468861 5.924857 0.0
-24.82978 15.593554 0.0
-23.506933 15.601482 0.0
-22.237113 15.646625 0.0
-21.00083 15.670117 0.0
-19.77418 15.684743 0.0
-18.553619 15.693884 0.0
-17.336936 15.69881 0.0
-16.122119 15.700969 0.0
-14.907934 15.701647 0.0
-13.693997 15.701649 0.0
-12.479078 15.701821 0.0
-11.252843 15.703687 0.0
-25.468223 0.890779 0.0
-25.376076 1.969024 0.0
-25.363068 3.2356 0.0
-25.35795 4.52079 0.0
-25.359335 5.810131 0.0
-25.359844 7.097604 0.0
-25.359856 8.384046 0.0
-25.361002 9.669794 0.0
-25.363394 10.959778 0.0
-25.369212 12.25507 0.0
-25.383956 13.536167 0.0
-25.477835 14.624541 0.0
-11.516024 -0.240966 0.0
-12.528448 -0.450013 0.0
-13.56172 -0.247353 0.0
-14.820883 -0.166973 0.0
-16.087538 -0.147823 0.0
-17.337414 -0.152171 0.0
-18.571507 -0.161293 0.0
-19.796359 -0.168548 0.0
-21.01749 -0.16661 0.0
-22.244219 -0.145359 0.0
-23.503503 -0.093899 0.0
-24.823637 -0.076226 0.0
10.180579 -11.260952 0.0
9.704638 -9.912611 0.0
9.321571 -8.687546 0.0
8.961518 -7.468407 0.0
8.59135 -6.243683 0.0
8.203526 -5.018623 0.0
7.79489 -3.797109 0.0
7.361493 -2.580952 0.0
6.894219 -1.371175 0.0
6.398867 -0.169651 0.0
5.895424 1.046178 0.0
5.295683 2.262425 0.0
4.553588 3.417786 0.0
3.725006 4.48659 0.0
2.816662 5.476602 0.0
1.783433 6.387504 0.0
0.53429 7.104794 0.0
-0.988348 7.644247 0.0
-2.576953 7.390769 0.0
-3.948764 7.00645 0.0
-5.225398 6.382082 0.0
-6.365425 5.547599 0.0
-7.396332 4.615176 0.0
-8.363778 3.596202 0.0
-9.394354 2.456795 0.0
-9.896265 1.065273 0.0
8.697126 3.621715 0.0
-9.295433 14.684828 0.0
24.122958 -10.849149 0.0
22.748995 -11.03736 0.0
21.50391 -11.084838 0.0
20.262841 -11.114977 0.0
19.030374 -11.136544 0.0
17.806837 -11.150832 0.0
16.58923 -11.158667 0.0
15.370935 -11.153407 0.0
14.136729 -11.138141 0.0
12.884662 -11.146492 0.0
24.104367 2.31138 0.0
24.122248 0.930083 0.0
24.098001 -0.368214 0.0
24.125347 -1.671577 0.0
24.135605 -2.958512 0.0
24.138118 -4.243847 0.0
24.141846 -5.529688 0.0
24.144396 -6.820245 0.0
24.12518 -8.132699 0.0
24.148268 -9.445568 0.0
10.588584 2.562058 0.0
11.803585 2.566969 0.0
13.020944 2.573875 0.0
14.239256 2.58007 0.0
15.455703 2.584692 0.0
16.670364 2.587459 0.0
17.88412 2.588623 0.0
19.09151 2.588165 0.0
20.291376 2.581094 0.0
21.503084 2.558929 0.0
22.730143 2.512389 0.0
-7.127147 13.957769 0.0
-5.865258 14.380616 0.0
-4.646903 14.849591 0.0
-3.446051 15.29238 0.0
-2.100241 15.660575 0.0
-0.640691 15.56657 0.0
0.302087 14.5148 0.0
1.327377 13.419927 0.0
2.213715 12.312508 0.0
2.979579 11.254923 0.0
3.651393 10.194324 0.0
4.314149 9.100095 0.0
5.03419 8.010091 0.0
5.772518 6.983927 0.0
6.530013 4.906361 0.0
-24.242767 14.325059 0.0
-22.868961 14.513447 0.0
-21.624019 14.561123 0.0
-20.383098 14.591444 0.0
-19.150779 14.613153 0.0
-17.927388 14.627583 0.0
-16.70993 14.635614 0.0
-15.495291 14.639109 0.0
-14.281668 14.640045 0.0
-13.067508 14.640054 0.0
-11.833376 14.637994 0.0
-24.239021 1.163934 0.0
-24.26505 2.534851 0.0
-24.22886 3.824381 0.0
-24.244708 5.134206 0.0
-24.254858 6.428764 0.0
-24.257935 7.717326 0.0
-24.261843 9.004243 0.0
-24.264405 10.295342 0.0
-24.245157 11.608245 0.0
-24.26818 12.921385 0.0
-11.156127 0.860215 0.0
-12.536218 0.642573 0.0
-13.982188 0.868184 0.0
-15.337235 0.945944 0.0
-16.653572 0.954661 0.0
-17.933644 0.937136 0.0
-19.194279 0.919723 0.0
-20.444255 0.907839 0.0
-21.671674 0.908344 0.0
-22.886602 0.952618 0.0
10.971454 -10.108003 0.0
10.52933 -8.984014 0.0
10.191208 -7.804032 0.0
9.836783 -6.577638 0.0
9.459661 -5.339594 0.0
9.059032 -4.100444 0.0
8.633292 -2.859972 0.0
8.161705 -1.619764 0.0
7.644628 -0.404507 0.0
7.152267 0.784702 0.0
6.807498 2.16564 0.0
5.934603 3.49272 0.0
5.047148 4.638538 0.0
4.117855 5.670407 0.0
3.160555 6.694295 0.0
2.022563 7.833861 0.0
0.460081 8.425001 0.0
-0.789374 9.088035 0.0
-2.102153 8.640033 0.0
-3.48601 8.306699 0.0
-5.032501 7.953759 0.0
-6.342098 6.972412 0.0
-7.487659 6.054022 0.0
-8.607983 5.072106 0.0
-9.661377 4.008217 0.0
7.357412 3.572901 0.0
9.382032 2.550362 0.0
-10.565806 14.640962 0.0
-8.449117 13.64512 0.0
23.211622 -10.028335 0.0
22.128437 -9.980788 0.0
20.883594 -10.002262 0.0
19.636393 -10.032199 0.0
18.399883 -10.06415 0.0
17.175542 -10.084753 0.0
15.956097 -10.08044 0.0
14.72494 -10.047777 0.0
11.607615 -11.18571 0.0
13.451957 -10.014854 0.0
23.183214 1.51898 0.0
22.865147 0.34354 0.0
23.017408 -1.028848 0.0
23.035541 -2.297111 0.0
23.038667 -3.577868 0.0
23.045149 -4.865976 0.0
23.056526 -6.159191 0.0
23.049909 -7.443899 0.0
22.894749 -8.833572 0.0
11.241145 1.50261 0.0
12.439432 1.512187 0.0
13.651293 1.514177 0.0
14.869689 1.517422 0.0
16.086331 1.521649 0.0
17.303544 1.518502 0.0
18.511609 1.512859 0.0
19.703633 1.50962 0.0
20.9017 1.495885 0.0
22.115225 1.472822 0.0
-6.140512 13.063541 0.0
-4.873964 13.558064 0.0
-3.662233 14.064335 0.0
-2.619209 14.531492 0.0
-1.306526 14.232247 0.0
-0.107234 13.181453 0.0
0.839923 12.168657 0.0
1.669264 11.182079 0.0
2.3508 10.194759 0.0
2.933396 9.080199 0.0
3.666438 7.92922 0.0
6.423905 6.13586 0.0
4.527474 6.857337 0.0
-23.331646 13.504354 0.0
-22.248645 13.457053 0.0
-21.004029 13.47887 0.0
-19.757069 13.509133 0.0
-18.520799 13.541365 0.0
-17.296687 13.562246 0.0
-16.080007 13.573062 0.0
-14.866565 13.577317 0.0
-13.653714 13.578133 0.0
-12.41934 13.569716 0.0
-23.343662 1.929172 0.0
-23.002556 3.047389 0.0
-23.097843 4.455455 0.0
-23.138512 5.761744 0.0
-23.153481 7.050305 0.0
-23.163971 8.33997 0.0
[...]
CELL_DATA 1211
SCALARS pressure float 1
LOOKUP_TABLE default
0.7350135125
0.2679938335
0.355038666
0.02552121883
0.7409470957
0.5557220276
1.000000083e-10
0.7084704608
0.5211504718
0.4857658203
1.000000083e-10
1.000000083e-10
1.113190286
0.4293970628
1.000000083e-10
1.000000083e-10
1.000000083e-10
0.5501244021
1.000000083e-10
0.566207999
0.3195019525
0.5556652283
0.7056717931
0.7091340637
0.7092957538
0.7093014452
0.3678304068
0.7093020266
1.288953461
0.5806449059
0.7092740815
0.6759514417
0.6653483408
0.6400353611
1.279841385
0.6873564881
1.000000083e-10
0.7039539208
0.548919579
0.7085628785
1.216147906
0.8079842235
1.000000083e-10
0.7092720411
0.520697185
0.7084118121
0.567683164
0.8081320889
1e-10
0.7608396387
0.692974881
0.6743852838
0.6776392888
0.6855197144
0.6989419481
0.7514134089
0.6483882831
0.7750292923
0.6984311875
0.6560910575
0.6404745014
0.6396616997
1.000000083e-10
1.000000083e-10
0.9183546615
0.822051573
0.8488204344
1.000000083e-10
0.5558302422
0.5501542737
0.5556834486
0.7510908775
0.5506914562
0.6256545176
0.5486225692
0.9929234164
0.7491360238
0.483946305
1.000000083e-10
0.952566822
0.9559336091
0.9554694507
0.9162338079
0.5055318781
0.9163186759
0.5024026339
0.7226283702
0.9172807554
0.9271900973
1.000000083e-10
0.6365179066
1.000000083e-10
1.000000083e-10
1.000000083e-10
0.9167311964
0.4973214183
0.9177723536
1.000000083e-10
0.7321152778
0.5478463891
1.000000083e-10
0.6371144804
0.6379813604
0.5820039392
0.6603766021
0.7829543022
0.6541888603
0.7664958559
0.7644012841
0.7791331221
0.7779652265
0.7761881193
0.6578935767
0.6619082539
0.7755539441
0.7354781818
0.662087464
0.7631572383
0.7698897267
0.6390185987
0.6826716876
0.7120050894
0.672745668
0.3874227854
0.645140049
0.526113617
0.7423483909
0.6380054751
0.5238411568
0.6727929136
0.5424423047
0.5766268191
1.000000083e-10
0.7803109809
0.7574136795
1.000000083e-10
1.000000083e-10
0.7500171787
0.7452540279
0.6157498521
0.5475284
0.5359632485
0.709299974
0.7093000441
0.70929595
0.709299986
0.7093014555
1.000000083e-10
0.7093020154
0.6393289308
0.7093000469
0.6506827061
0.1689012011
0.540024401
0.5286359632
0.6115180162
0.7093066501
0.6483463225
1.630325063
0.5612944115
0.6764408486
0.5405953148
0.5973287774
0.674268052
0.6941821794
0.99715684
0.6173538664
1.000000083e-10
0.6100547286
0.6189638452
0.6941416006
0.7093020273
0.5847853746
0.5894774411
0.7086885139
0.6017199521
0.7083329919
0.6123279677
0.7093053143
0.6459143771
0.6405405897
0.7079467636
0.7091432899
0.7092997006
0.7058646025
0.6877937519
0.6951142255
0.6805137036
1.000000083e-10
0.6393540808
0.6550685844
0.6845698909
0.5589400217
0.6400057308
0.6815259184
0.7093042904
0.6370409833
0.7092530771
0.6419347708
1.000000083e-10
0.7077874067
1.000000083e-10
1.000000083e-10
0.6415704611
0.7092987505
1.000000083e-10
0.6430632491
0.7275382001
0.5887761363
9.999999717e-11
0.6395095944
0.5848218424
0.5938464469
0.6987008758
0.7254282571
0.6980807726
0.7076526834
0.6946720866
0.727192335
0.6959260523
0.7034124954
0.7151882514
0.7028152404
0.7235109448
0.7280836361
0.7409019037
0.7044833504
0.7546073131
0.7091841227
0.7589979886
0.7085869655
0.75874767
0.7206099198
0.6840535962
0.7096147457
0.6735325781
0.7187487934
0.7105841077
0.7623559158
0.6664413634
0.7211055376
0.7794324319
0.6630829368
0.6581958789
0.7809102101
0.7663778867
0.7227138379
0.7579457804
0.6517653849
0.7554832751
9.999999717e-11
1.000000083e-10
0.9556951116
0.9555870886
0.9559542189
0.9555294585
0.9166489382
0.916467383
0.4884168455
0.9555741109
0.4484989776
0.5480890189
0.7572074763
1.000000083e-10
0.6545576375
1.000000083e-10
0.6370784303
0.5361549354
0.6380248321
1.000000083e-10
0.6424538861
0.7480417361
0.5408699084
0.9324262534
0.9075125749
0.5291704901
0.7186276262
0.1107537651
0.5844253109
0.5810344183
0.7312448973
0.9163791342
0.6577448832
0.5866401824
0.7122895411
0.5914994789
0.7085819226
0.6275579576
0.8213170094
0.7278276258
0.642369199
0.8213514213
0.9564824635
0.773220433
0.9527356839
0.7969846236
0.906037424
0.7633945912
0.7453224139
0.7642889915
0.3005847919
0.7179968667
0.6563066262
0.8206162019
0.613126586
0.8197324167
0.6843779608
0.5639087051
0.8210575589
0.5299486718
1.000000083e-10
0.6380176133
0.7722682892
0.885909706
0.7282946783
0.6613805378
0.5962950643
0.5654400691
0.6438648486
0.7445241037
0.6415598319
0.6484898119
0.6300149511
0.6548521829
0.5988728666
0.6387356042
0.6392550333
0.6541907744
0.5823037512
0.6544320047
0.5886613725
0.654730914
0.6715343582
0.655454858
0.6408206587
0.6412530662
0.6820702078
0.6422425717
0.6943415545
0.7147102386
0.6941676665
0.6831724358
0.6447236022
0.6967717119
0.6471029279
0.7111569621
0.7063424246
0.7243376785
0.7141731414
0.7222005067
0.7082777263
0.6693011518
0.7219471946
0.6846987094
0.7200371307
0.7045684742
0.7129720786
0.7239039837
0.7026232712
0.7383497363
0.5866547682
0.7139632251
0.7488568426
0.5925595332
0.6842908946
0.5919891883
0.7157352651
0.7667742234
0.6049710548
0.6829167447
0.6974244937
0.6765340615
0.639533655
0.06156628948
0.6942642654
0.691918277
0.683530475
0.6537626826
0.709034429
0.6480196776
0.7093053029
0.7093053218
0.709304366
0.7093065381
0.6254287789
0.6152057026
0.6816135777
0.6459223788
0.5919820091
0.643345249
0.6851902007
0.6783524859
0.6989925784
0.6853829623
0.6494332838
0.6935389312
0.6156675339
0.6856559433
0.7025847964
0.5808924673
0.7089983536
0.5839588367
0.6840897044
0.7093065384
0.6862294683
0.7093066541
0.686192199
0.6875199087
0.6998138123
0.6884022024
0.7093080926
0.7031877289
0.7093003826
0.7093076713
0.7092587187
0.7032977556
0.7093070133
0.6339394937
0.6822432337
0.6818535645
0.7040755256
0.698877605
0.6942913312
0.5871650962
0.7093075423
0.6356756495
0.7092991901
0.7089604499
0.7091264343
0.6423467881
0.6353718811
0.6981849106
0.7093068392
0.5820571857
0.6854857937
0.5833110203
0.6840541498
0.6465037648
0.685236942
0.70096541
0.7118136051
0.7101777002
0.6963549323
0.7023665242
0.7070354231
0.7073345291
0.7114507009
0.7181609435
0.7085589836
0.7077068384
0.7251349317
0.7051932458
0.709432829
0.7087687529
0.7302628701
0.7311626632
0.7022213394
0.7039789442
0.7327811109
0.7334842691
0.6986779555
0.7107819648
0.7339568222
0.6973428333
0.71074903
0.7382359651
0.7106508011
0.741041289
0.730664082
0.6587877086
0.7731542377
0.6388894808
0.8218272292
0.8215564165
0.8219917225
0.7739436222
0.5787685985
0.7738334281
0.5785197307
0.5780661083
0.5880717679
0.7187312444
0.6846389368
0.6361325881
0.61175802
0.5952794437
0.6986469389
0.6985259487
0.6410603056
0.7097050585
0.5789976034
0.7988029596
0.7665646351
0.6186366016
0.772909466
0.5897273898
0.6864409248
0.7731270961
0.6852253649
0.7735992066
0.6852948234
0.6853809833
0.7083790892
0.6931453019
0.7086785243
0.727831016
0.7316871839
0.7317464386
0.8208978739
0.7660213189
0.7184772223
0.7160758106
0.724265117
0.7183261016
0.6406509694
0.6989329741
0.7120897855
0.6503412984
0.7305133223
0.7291087918
0.6995192998
0.6421985261
0.6453411172
0.6990720235
0.7179283135
0.5949993051
0.6934431634
0.6058231067
0.6869869488
0.6616930318
0.6843408935
0.6930142859
0.6866928476
0.6849221005
0.6839587515
0.6937868993
0.6836470006
0.7067427076
0.6940109307
0.6834206296
0.7064507184
0.6918883671
0.7039658151
0.6824468337
0.7070282846
0.7072833658
0.6824056254
0.7072374834
0.6821876454
0.7062003775
0.7081180632
0.6962144991
0.6878394796
0.7076056507
0.6872027307
0.6976491096
0.6867145048
0.7091990103
0.6875258531
0.6915824545
0.7105938532
0.7132040022
0.6982846116
0.7103485821
0.7092224711
0.7116297441
0.7129387483
0.7108535067
0.7173745866
0.7082422757
0.709259336
0.7071931962
0.7206171643
0.7113569914
0.7253006911
0.728051837
0.6838690932
0.7286082332
0.7272964914
0.7014819255
0.6981869538
0.7100006039
0.7095744553
0.7081479255
0.6638595282
0.6582038572
0.7084006329
0.7016329082
0.7054161306
0.6996210245
0.7090079916
0.7092598633
0.6997663337
0.6993277174
0.7093076736
0.6837983527
0.7086077005
0.7037318849
0.7069795896
0.698935969
0.7026546067
0.7093080421
0.6992486885
0.6869841324
0.7092662091
0.7042671445
0.6249430373
0.695978759
0.7066629447
0.7022800207
0.7076205309
0.6987678922
0.7092514386
0.6831574325
0.7093080443
0.7093079439
0.7068896931
0.6980198303
0.7093079573
0.7091625719
0.7093079445
0.7093075234
0.7093075539
0.7078529732
0.7093081201
0.7070277539
0.7092808548
0.6980474398
0.7072427711
0.7087771532
0.6983902401
0.6982881758
0.7066751968
0.6979113188
0.7093074088
0.7092759014
0.7064690376
0.6981741511
0.6979592796
0.7084937753
0.7063959636
0.6833779681
0.6843177719
0.6982837401
0.7083765589
0.706682567
0.7066583784
0.7075176099
0.7097649225
0.7095307334
0.710852937
0.7084605272
0.710178631
0.7105025234
0.709323992
0.7101513189
0.7092646186
0.7119518024
0.7124645156
0.7089491594
0.7093822849
0.7090422238
0.7093705468
0.7132154398
0.7130454925
0.7071210345
0.7095449866
0.7057533448
0.7090105337
0.7273074695
0.7236198745
0.7085166699
0.7139990825
0.700403138
0.7293142108
0.717514577
0.6991073005
0.6991557339
0.731547695
0.687895974
0.7090635172
0.7183630252
0.6841706242
0.7101285951
0.7067360629
0.697879207
0.7094322499
0.7102706669
0.7066265621
0.6982021826
0.699034887
0.6857368484
0.706457149
0.7281785202
0.7172208478
0.6980842669
0.7171624941
0.6879397192
0.709968644
0.7182365187
0.7068538527
0.7069012839
0.7084338838
0.7091621707
0.7184606832
0.708522256
0.7319442672
0.7171149811
0.7100007842
0.7092549036
0.7116338517
0.702518467
0.7158322361
0.6818866766
0.7077074243
0.6847512832
0.7065544428
0.7004669407
0.711414564
0.7003395512
0.7111697443
0.7001058005
0.6999142983
0.7088952459
0.7071920078
0.6866092943
0.6843369832
0.6999332265
0.7086225209
0.709099404
0.7095302763
0.7065424116
0.708537018
0.7070339653
0.7070502679
0.7083790781
0.7071562029
0.7084536908
0.7072062839
0.7041455481
0.7086810185
0.70421077
0.7086541802
0.7091530553
0.7042436849
0.7091721193
0.7040165151
0.7091355085
0.7036821879
0.7067290583
0.7041333119
0.7054013756
0.7156807688
0.7079700559
0.7096987507
0.7087905783
0.7095766146
0.7091802665
0.7094011829
0.7093405202
0.7091354073
0.708933621
0.709314026
0.7092966466
0.709803322
0.709367057
0.7093627646
0.7093281346
0.7120489088
0.7063744014
0.7092487344
0.7106087564
0.7093408201
0.7116677195
0.7112478319
0.7088415577
0.7070349771
0.703900764
0.6999481391
0.6933595979
0.7064702228
0.7045760716
0.7091308016
0.7087982186
0.7093119911
0.7085689939
0.7093080588
0.7085267355
0.7093080847
0.7084765363
0.7092983966
0.709103097
0.7065217926
0.709267659
0.7084670225
0.7067728898
0.7069861985
0.7086382248
0.6993015125
0.7079609122
0.7091436191
0.7093031677
0.7083928073
0.7064339266
0.7091288542
0.70930812
0.7091859096
0.7092740901
0.7083758256
0.7093067351
0.7093080856
0.7093040278
0.7093081315
0.7091583218
0.706303805
0.7088023109
0.7083772737
0.7091512225
0.7092769467
0.7093014665
0.7092587406
0.7093068142
0.7083978211
0.7092657222
0.709307231
0.7064269691
0.7091310196
0.7092610867
0.7064843106
0.709202141
0.7091344802
0.7093112409
0.7094448642
0.7093326763
0.7093223524
0.7094865643
0.7095510822
0.7093239057
0.7093101188
0.7093064295
0.7093092368
0.7094067073
0.7093946862
0.7085553439
0.7100217464
0.7115051301
0.7116389594
0.7084724103
0.7086648129
0.7091337789
0.7071299393
0.7083697414
0.7092677051
0.709352937
0.7091506081
0.7084532892
0.7094203467
0.7094962599
0.7092632335
0.709912842
0.7086389617
0.7071809865
0.709338755
0.7099887144
0.7091964196
0.7115471421
0.7115901361
0.7093616619
0.7091982986
0.7100955468
0.7092705539
0.706618645
0.7092013323
0.7069729879
0.7091415581
0.7093014171
0.7086904141
0.7094185327
0.7092859357
0.7092966832
0.7093067713
0.707030811
0.709186789
0.7091586962
0.7069610817
0.7085042503
0.7092743379
0.7087499683
0.7091424534
0.7091401511
0.7091486432
0.7087910047
0.7090898763
0.708815243
0.709301372
0.7088409954
0.7091073853
0.7068355114
0.7092482355
0.7078920349
0.709297225
0.7092826928
0.7093268956
0.7093046053
0.7093621766
0.709314938
0.7093088255
0.7093450707
0.7094017567
0.7074814144
0.7094203135
0.7095412364
0.7086576026
0.7094822264
0.7093126491
0.7099927316
0.7098875251
0.7091270875
0.7092753487
0.7084067076
0.709172705
0.7034884535
0.7087721471
0.7067375028
0.7083687207
0.7089886563
0.7093068377
0.7092711227
0.709307395
0.709317709
0.7093074233
0.7091586955
0.7093028051
0.7092772294
0.709308125
0.7093080612
0.7092705741
0.7091291486
0.7093081295
0.7093025494
0.7092649731
0.7091853911
0.7092797417
0.709300826
0.7091570361
0.7093073395
0.7092686752
0.7093081227
0.7091337498
0.7093081293
0.709302999
0.7093075131
0.7093081219
0.7093074714
0.7093069578
0.7093012226
0.7093016183
0.7092807395
0.7092628974
0.7092633001
0.7093079682
0.7093079227
0.709263397
0.7093007502
0.709307971
0.7091513175
0.7092618771
0.7091559189
0.7084231906
0.7093005716
0.7090995958
0.7093063883
0.7093000082
0.7093067742
0.7093015672
0.709312583
0.7093100575
0.7096421834
0.7094472215
0.7092787065
0.7093397653
0.7093388723
0.7094434911
0.7092858101
0.7093404389
0.709302515
0.7092652311
0.7092630485
0.709307726
0.709266535
0.7093021091
0.7093081047
0.7093017099
0.7083848187
0.7060147998
0.7093368739
0.7092843272
0.7092850916
0.7093079716
0.7094361666
0.7093036798
0.7093127026
0.7094370339
0.7093133522
0.7093090394
0.709313124
0.7094543256
0.7093131148
0.7092001087
0.7092051848
0.7093120262
0.7093052653
0.7093077601
0.7091976971
0.7093032799
0.7092764262
0.7092876578
0.7092593343
0.7093066455
0.7093020399
0.7093064352
0.7092781883
0.7093067427
0.709306168
0.7093081028
0.709306983
0.7093079602
0.7093017001
0.7092814577
0.709319893
0.7093088662
0.7093314516
0.7093037293
0.7093179927
0.7092854411
0.7093055903
0.7093429603
0.7093095465
0.7093374229
0.7093095259
0.7093154704
0.7091497271
0.7093067894
0.7093070815
0.7091907373
0.7093000106
0.709309256
0.7092861423
0.7093080142
0.7093069502
0.7093081315
0.7093081311
0.7093081251
0.7093078291
0.7093080648
0.7093003246
0.709308131
0.7093062969
0.7093081073
0.7093080338
0.709306565
0.7093081115
0.7093012203
0.7093081051
0.7093081319
0.7093080032
0.7093081319
0.7092963831
0.7092616695
0.7093072893
0.7093006739
0.709301432
0.7093067935
0.7093013199
0.709308103
0.7093012201
0.7093071938
0.7093079577
0.7093072173
0.7093096258
0.7093129859
0.7093070418
0.7093089564
0.7093124007
0.7093069641
0.7093127545
0.7093068784
0.7093080763
0.7093068012
0.7093141648
0.7093081083
0.7093014436
0.7093081668
0.7093089667
0.7093042331
0.7093081248
0.709307649
0.7093090868
0.7093081248
0.7093081335
0.7093082497
0.7093056928
0.7093081052
0.7093081059
0.7093082514
0.7093053508
0.7093081431
0.709307515
0.7093081734
0.7093079501
0.7093029134
0.7093070383
0.7093081065
0.709308126
0.7093070896
0.7093079475
0.7093081062
0.709309961
0.7093077437
0.7093091108
0.7093050793
0.7093091284
0.7093081347
0.7093080057
0.7093094574
0.7093020627
0.7093081503
0.7093035021
0.7093082402
0.7092415639
0.7093081162
0.7093073623
0.7092981133
0.709307991
0.7093081036
0.7093080868
0.7093081317
0.7093081295
0.7093079305
0.7093080267
0.7093081209
0.7093081319
0.7093080285
0.70930813
0.7093081317
0.7093079651
0.7093081313
0.7093079466
0.7093081263
0.7093081205
0.709308132
0.7093079942
0.7093081317
0.7093081329
0.7093079809
0.709307971
0.7093081267
0.7093081032
0.7093081316
0.7093080588
0.7093075331
0.7093082438
0.709308134
0.7093081528
0.7093081421
0.709308132
0.7093083175
0.7093081293
0.7093080776
0.7093081314
0.7093081317
0.7093081072
0.7093057544
0.7093080569
0.709308328
0.7093081317
0.7093079731
0.7093081157
0.7093081324
0.7093077685
0.7093080092
0.7093081316
0.7093081319
0.7093081308
0.7093081291
0.7093081319
0.7093081289
0.709308129
0.709308132
0.70930813
0.7093081296
0.7093081315
0.7093081289
0.7093081357
0.709308132
0.7093081259
0.7093081315
0.7093081579
0.7093081291
0.7093081279
0.7093081318
0.709308132
0.7093081316
0.7093081313
0.709308127
0.7093081292
0.7093081318
0.7093081316
0.7093081324
0.709308132
0.709308132
SCALARS mach float 1
LOOKUP_TABLE default
0.09310877359
1.498996001
0.37072494
12.87725444
0.08690860268
0.3539140434
85266.42104
0.09992049046
1.820835576
1.745776777
76302.08881
82470.58189
2.187839965
1.688054635
86980.58004
75890.84647
186175.2971
1.573245728
177977.8199
1.255113878
0.0621269751
0.3487398878
0.09766059898
0.1000236637
0.100106468
0.1001061784
3.499324261
0.1001062138
1.775840812
0.1899099656
0.1001028532
0.08652804369
0.197443111
0.04042408501
1.90814574
0.09119321115
89563.85096
0.09931103004
0.3513734716
0.09380400738
1.89254747
2.563828058
90879.70246
0.1001030992
3.045826875
0.09991374445
0.3624468875
1.687293782
0
0.06243506238
0.101845058
0.09290406711
0.08875897257
0.09191548143
0.09583522811
0.07502585209
0.05943371487
0.06069443478
0.09065337642
0.05414369847
0.04193839042
0.03914811399
203503.5327
94999.22159
0.2796296697
1.812260818
2.436507232
82478.78913
0.3554060653
1.402673188
0.348556838
0.07323579467
0.3647083158
3.287068722
0.3629413825
2.36029236
2.341200343
0.1335092257
82261.03574
0.3118092125
0.3061783156
0.3057243304
0.2769405762
2.005459089
0.2770396094
1.928712587
0.3061995335
0.2776635543
0.366375311
191824.9712
0.1245318146
92819.04194
96370.97605
81372.23444
0.2772685842
2.053425334
0.2791524473
74384.9
1.833606845
0.2037737661
98972.55655
0.1166410926
0.03833343831
0.1563403704
0.06056800208
0.05125412304
0.04835442681
0.05807623582
0.05925451175
0.05332755932
0.05469890834
0.05612851418
0.05688646922
0.06434699071
0.06895365819
0.07826601817
0.1314553818
0.05996442335
0.06300423589
0.1148919349
0.09073382437
0.1045648855
2.781541985
2.562510447
0.1151514483
2.076669592
0.08599709648
0.1233069609
0.3409533489
0.2047977641
0.3537686698
0.1217165768
98952.26344
0.05294507812
0.07800794177
87321.8197
92399.57753
0.06951442247
0.0270806029
1.846063216
0.3682763349
0.3854216438
0.1001082365
0.100108257
0.1001064707
0.1001082211
0.1001061968
83684.44121
0.1001062255
0.03617720106
0.100108254
0.1178378912
5.323566443
0.3297661338
0.373464423
0.06936000018
0.1001014714
0.1216675905
1.956493828
0.1424129867
0.09465707274
0.3162752178
0.1607937121
0.08427695683
0.09626429637
2.342268252
1.729093431
87943.10105
0.07851545091
0.07825377139
0.08580011879
0.1001062207
0.07991069021
0.2059700773
1.424292209
0.1555491267
0.1001138771
0.1459985475
0.1001028283
0.1222316593
0.1239389171
0.09995495705
0.1000245387
0.1001023219
0.09774884509
0.1017007476
0.09661997819
2.464462231
86207.21704
0.03812617445
0.05140336698
0.1029680829
1.612856094
0.114290263
0.07405779431
0.1001026707
0.1293066296
0.1000964678
0.1195267838
78433.88022
0.09995999682
91827.89733
91839.93179
0.1309087425
0.1001025401
163197.5588
0.1211672694
1.5756498
0.09287785264
54860.89872
0.1228847506
0.184043829
0.1367086322
0.09908845319
0.1000402782
0.1030652776
0.1007131967
0.09328568067
0.0884269765
0.0941978928
0.09346429996
0.09240120334
0.09722530512
0.09174191642
0.08947421833
0.0830655128
0.09774136888
0.07947431231
0.1000241051
0.06986527016
0.09988693376
0.06543509075
0.09313965294
0.09560807526
0.1007791884
0.08524678545
0.09313185961
0.09902962059
0.06099539771
0.0756633099
0.09023538454
0.0527611439
0.06847863969
0.07741548892
0.05187144583
0.05760258876
0.08851873536
0.06411018789
0.06697032205
1.401963119
52419.21299
82553.92666
0.305915984
0.3058494061
0.3060544198
0.3057917904
0.2772559152
0.2771490622
2.092153571
0.3058377629
2.283853974
1.603711549
0.07905028992
97302.07582
0.1020001086
94695.20861
0.124102759
1.847417372
0.1247924587
90760.90764
0.1178255223
0.07907214264
1.717608844
0.3596384255
0.2971019695
1.708048165
2.393137947
1.169320258
0.1531541917
0.1538817175
0.1214191455
0.277083192
0.1436346926
0.180432303
2.072115751
0.1037397798
0.1000690373
0.1616824013
0.2022190378
0.2052147804
0.1291088538
0.2039507416
0.3065609453
0.1603310426
0.3125685758
0.2111877688
0.298946042
0.07076344967
0.05924581687
0.05623079018
5.313617933
0.09491701752
2.570735897
0.2016348904
0.2572242844
0.2009792005
0.103134935
0.3397376087
0.2036008395
0.3791364008
82052.85248
0.1254484025
0.1594811482
2.294342954
0.2007810255
1.766493939
0.1607046488
0.3597526048
0.1175310962
0.2843067876
0.170703
0.05672053193
0.1209034784
0.04925269484
0.1583585489