# vtk DataFile Version 3.0
FirstorderEuler solution
ASCII
DATASET UNSTRUCTURED_GRID
POINTS 673 float
26.342241 -13.28699 0.0
9.342241 -13.28699 0.0
25.127955 -13.28699 0.0
23.91367 -13.28699 0.0
22.699384 -13.28699 0.0
21.485098 -13.28699 0.0
20.270812 -13.28699 0.0
19.056527 -13.28699 0.0
17.842241 -13.28699 0.0
16.627955 -13.28699 0.0
15.41367 -13.28699 0.0
14.199384 -13.28699 0.0
12.985098 -13.28699 0.0
11.770812 -13.28699 0.0
10.556527 -13.28699 0.0
26.342241 4.71301 0.0
26.342241 3.427296 0.0
26.342241 2.141581 0.0
26.342241 0.855867 0.0
26.342241 -0.429847 0.0
26.342241 -1.715561 0.0
26.342241 -3.001276 0.0
26.342241 -4.28699 0.0
26.342241 -5.572704 0.0
26.342241 -6.858419 0.0
26.342241 -8.144133 0.0
26.342241 -9.429847 0.0
26.342241 -10.715561 0.0
26.342241 -12.001276 0.0
9.342241 4.71301 0.0
10.556527 4.71301 0.0
11.770812 4.71301 0.0
12.985098 4.71301 0.0
14.199384 4.71301 0.0
15.41367 4.71301 0.0
16.627955 4.71301 0.0
17.842241 4.71301 0.0
19.056527 4.71301 0.0
20.270812 4.71301 0.0
21.485098 4.71301 0.0
22.699384 4.71301 0.0
23.91367 4.71301 0.0
25.127955 4.71301 0.0
-9.461749 16.762785 0.0
-8.851018 15.727887 0.0
-7.643912 15.833538 0.0
-6.56175 16.497727 0.0
-5.421878 17.057547 0.0
-4.22328 17.474446 0.0
-2.97506 17.703168 0.0
-1.706546 17.717887 0.0
-0.454967 17.510251 0.0
0.738528 17.081097 0.0
1.813986 16.410046 0.0
2.738939 15.541466 0.0
3.54016 14.556472 0.0
4.262391 13.511657 0.0
4.943851 12.439681 0.0
5.599125 11.351471 0.0
6.240279 10.254863 0.0
6.877149 9.155758 0.0
7.509236 8.053899 0.0
8.132212 6.946866 0.0
8.743389 5.833275 0.0
-26.461749 16.762785 0.0
-25.247463 16.762785 0.0
-24.033178 16.762785 0.0
-22.818892 16.762785 0.0
-21.604606 16.762785 0.0
-20.39032 16.762785 0.0
-19.176035 16.762785 0.0
-17.961749 16.762785 0.0
-16.747463 16.762785 0.0
-15.533178 16.762785 0.0
-14.318892 16.762785 0.0
-13.104606 16.762785 0.0
-11.89032 16.762785 0.0
-10.676035 16.762785 0.0
-26.461749 -1.237215 0.0
-26.461749 0.048499 0.0
-26.461749 1.334214 0.0
-26.461749 2.619928 0.0
-26.461749 3.905642 0.0
-26.461749 5.191356 0.0
-26.461749 6.477071 0.0
-26.461749 7.762785 0.0
-26.461749 9.048499 0.0
-26.461749 10.334214 0.0
-26.461749 11.619928 0.0
-26.461749 12.905642 0.0
-26.461749 14.191356 0.0
-26.461749 15.477071 0.0
-9.461749 -1.237215 0.0
-10.676035 -1.237215 0.0
-11.89032 -1.237215 0.0
-13.104606 -1.237215 0.0
-14.318892 -1.237215 0.0
-15.533178 -1.237215 0.0
-16.747463 -1.237215 0.0
-17.961749 -1.237215 0.0
-19.176035 -1.237215 0.0
-20.39032 -1.237215 0.0
-21.604606 -1.237215 0.0
-22.818892 -1.237215 0.0
-24.033178 -1.237215 0.0
-25.247463 -1.237215 0.0
9.057562 -12.04808 0.0
8.752682 -10.813986 0.0
8.427982 -9.584959 0.0
8.084412 -8.36107 0.0
7.72396 -7.142045 0.0
7.348469 -5.927565 0.0
6.956232 -4.718396 0.0
6.542915 -3.516277 0.0
6.104204 -2.323199 0.0
5.635914 -1.141429 0.0
5.131587 0.025386 0.0
4.580287 1.170706 0.0
3.970726 2.286035 0.0
3.285322 3.35621 0.0
2.500708 4.355551 0.0
1.591849 5.24254 0.0
0.539945 5.952305 0.0
-0.6477 6.394399 0.0
-1.911401 6.481296 0.0
-3.151754 6.218126 0.0
-4.311916 5.702591 0.0
-5.375063 5.007718 0.0
-6.338326 4.179341 0.0
-7.202162 3.247593 0.0
-7.962143 2.229297 0.0
-8.611319 1.137018 0.0
-9.155683 -0.011337 0.0
10.044371 -12.43646 0.0
8.024035 4.75629 0.0
-10.026781 15.712465 0.0
-10.302207 -0.12462 0.0
24.710163 -12.117687 0.0
23.387221 -12.125543 0.0
22.117317 -12.170608 0.0
20.880961 -12.194029 0.0
19.654245 -12.208596 0.0
18.433619 -12.217683 0.0
17.216868 -12.222535 0.0
16.001968 -12.224578 0.0
14.787139 -12.223512 0.0
13.560909 -12.222768 0.0
12.321164 -12.237015 0.0
11.082715 -12.284774 0.0
25.348686 2.58488 0.0
25.254061 1.506492 0.0
25.23733 0.239748 0.0
25.232954 -1.045487 0.0
25.237431 -2.334798 0.0
25.239418 -3.62226 0.0
25.239917 -4.908701 0.0
25.241196 -6.194431 0.0
25.243627 -7.484297 0.0
25.249476 -8.779399 0.0
25.264265 -10.06036 0.0
25.358205 -11.148698 0.0
9.947555 3.636152 0.0
11.172442 3.639903 0.0
12.392517 3.64298 0.0
13.610558 3.646116 0.0
14.826653 3.648657 0.0
16.041421 3.650269 0.0
17.255549 3.651029 0.0
18.469503 3.651203 0.0
19.681683 3.651235 0.0
20.890888 3.644962 0.0
22.112344 3.621685 0.0
23.377226 3.569633 0.0
24.703001 3.551931 0.0
-8.032707 14.833627 0.0
-6.80688 15.195282 0.0
-5.615704 15.68612 0.0
-4.423453 16.141555 0.0
-3.230873 16.512181 0.0
-2.24284 16.84127 0.0
-1.217096 16.630781 0.0
-0.17984 16.518806 0.0
0.657278 15.818978 0.0
1.888099 14.825833 0.0
2.810961 13.504387 0.0
3.596001 12.387648 0.0
4.303569 11.308179 0.0
4.964312 10.228941 0.0
5.617594 9.138982 0.0
6.288627 8.055317 0.0
6.934845 7.00807 0.0
7.468861 5.924857 0.0
-24.82978 15.593554 0.0
-23.506933 15.601482 0.0
-22.237113 15.646625 0.0
-21.00083 15.670117 0.0
-19.77418 15.684743 0.0
-18.553619 15.693884 0.0
-17.336936 15.69881 0.0
-16.122119 15.700969 0.0
-14.907934 15.701647 0.0
-13.693997 15.701649 0.0
-12.479078 15.701821 0.0
-11.252843 15.703687 0.0
-25.468223 0.890779 0.0
-25.376076 1.969024 0.0
-25.363068 3.2356 0.0
-25.35795 4.52079 0.0
-25.359335 5.810131 0.0
-25.359844 7.097604 0.0
-25.359856 8.384046 0.0
-25.361002 9.669794 0.0
-25.363394 10.959778 0.0
-25.369212 12.25507 0.0
-25.383956 13.536167 0.0
-25.477835 14.624541 0.0
-11.516024 -0.240966 0.0
-12.528448 -0.450013 0.0
-13.56172 -0.247353 0.0
-14.820883 -0.166973 0.0
-16.087538 -0.147823 0.0
-17.337414 -0.152171 0.0
-18.571507 -0.161293 0.0
-19.796359 -0.168548 0.0
-21.01749 -0.16661 0.0
-22.244219 -0.145359 0.0
-23.503503 -0.093899 0.0
-24.823637 -0.076226 0.0
10.180579 -11.260952 0.0
9.704638 -9.912611 0.0
9.321571 -8.687546 0.0
8.961518 -7.468407 0.0
8.59135 -6.243683 0.0
8.203526 -5.018623 0.0
7.79489 -3.797109 0.0
7.361493 -2.580952 0.0
6.894219 -1.371175 0.0
6.398867 -0.169651 0.0
5.895424 1.046178 0.0
5.295683 2.262425 0.0
4.553588 3.417786 0.0
3.725006 4.48659 0.0
2.816662 5.476602 0.0
1.783433 6.387504 0.0
0.53429 7.104794 0.0
-0.988348 7.644247 0.0
-2.576953 7.390769 0.0
-3.948764 7.00645 0.0
-5.225398 6.382082 0.0
-6.365425 5.547599 0.0
-7.396332 4.615176 0.0
-8.363778 3.596202 0.0
-9.394354 2.456795 0.0
-9.896265 1.065273 0.0
8.697126 3.621715 0.0
-9.295433 14.684828 0.0
24.122958 -10.849149 0.0
22.748995 -11.03736 0.0
21.50391 -11.084838 0.0
20.262841 -11.114977 0.0
19.030374 -11.136544 0.0
17.806837 -11.150832 0.0
16.58923 -11.158667 0.0
15.370935 -11.153407 0.0
14.136729 -11.138141 0.0
12.884662 -11.146492 0.0
24.104367 2.31138 0.0
24.122248 0.930083 0.0
24.098001 -0.368214 0.0
24.125347 -1.671577 0.0
24.135605 -2.958512 0.0
24.138118 -4.243847 0.0
24.141846 -5.529688 0.0
24.144396 -6.820245 0.0
24.12518 -8.132699 0.0
24.148268 -9.445568 0.0
10.588584 2.562058 0.0
11.803585 2.566969 0.0
13.020944 2.573875 0.0
14.239256 2.58007 0.0
15.455703 2.584692 0.0
16.670364 2.587459 0.0
17.88412 2.588623 0.0
19.09151 2.588165 0.0
20.291376 2.581094 0.0
21.503084 2.558929 0.0
22.730143 2.512389 0.0
-7.127147 13.957769 0.0
-5.865258 14.380616 0.0
-4.646903 14.849591 0.0
-3.446051 15.29238 0.0
-2.100241 15.660575 0.0
-0.640691 15.56657 0.0
0.302087 14.5148 0.0
1.327377 13.419927 0.0
2.213715 12.312508 0.0
2.979579 11.254923 0.0
3.651393 10.194324 0.0
4.314149 9.100095 0.0
5.03419 8.010091 0.0
5.772518 6.983927 0.0
6.530013 4.906361 0.0
-24.242767 14.325059 0.0
-22.868961 14.513447 0.0
-21.624019 14.561123 0.0
-20.383098 14.591444 0.0
-19.150779 14.613153 0.0
-17.927388 14.627583 0.0
-16.70993 14.635614 0.0
-15.495291 14.639109 0.0
-14.281668 14.640045 0.0
-13.067508 14.640054 0.0
-11.833376 14.637994 0.0
-24.239021 1.163934 0.0
-24.26505 2.534851 0.0
-24.22886 3.824381 0.0
-24.244708 5.134206 0.0
-24.254858 6.428764 0.0
-24.257935 7.717326 0.0
-24.261843 9.004243 0.0
-24.264405 10.295342 0.0
-24.245157 11.608245 0.0
-24.26818 12.921385 0.0
-11.156127 0.860215 0.0
-12.536218 0.642573 0.0
-13.982188 0.868184 0.0
-15.337235 0.945944 0.0
-16.653572 0.954661 0.0
-17.933644 0.937136 0.0
-19.194279 0.919723 0.0
-20.444255 0.907839 0.0
-21.671674 0.908344 0.0
-22.886602 0.952618 0.0
10.971454 -10.108003 0.0
10.52933 -8.984014 0.0
10.191208 -7.804032 0.0
9.836783 -6.577638 0.0
9.459661 -5.339594 0.0
9.059032 -4.100444 0.0
8.633292 -2.859972 0.0
8.161705 -1.619764 0.0
7.644628 -0.404507 0.0
7.152267 0.784702 0.0
6.807498 2.16564 0.0
5.934603 3.49272 0.0
5.047148 4.638538 0.0
4.117855 5.670407 0.0
3.160555 6.694295 0.0
2.022563 7.833861 0.0
0.460081 8.425001 0.0
-0.789374 9.088035 0.0
-2.102153 8.640033 0.0
-3.48601 8.306699 0.0
-5.032501 7.953759 0.0
-6.342098 6.972412 0.0
-7.487659 6.054022 0.0
-8.607983 5.072106 0.0
-9.661377 4.008217 0.0
7.357412 3.572901 0.0
9.382032 2.550362 0.0
-10.565806 14.640962 0.0
-8.449117 13.64512 0.0
23.211622 -10.028335 0.0
22.128437 -9.980788 0.0
20.883594 -10.002262 0.0
19.636393 -10.032199 0.0
18.399883 -10.06415 0.0
17.175542 -10.084753 0.0
15.956097 -10.08044 0.0
14.72494 -10.047777 0.0
11.607615 -11.18571 0.0
13.451957 -10.014854 0.0
23.183214 1.51898 0.0
22.865147 0.34354 0.0
23.017408 -1.028848 0.0
23.035541 -2.297111 0.0
23.038667 -3.577868 0.0
23.045149 -4.865976 0.0
23.056526 -6.159191 0.0
23.049909 -7.443899 0.0
22.894749 -8.833572 0.0
11.241145 1.50261 0.0
12.439432 1.512187 0.0
13.651293 1.514177 0.0
14.869689 1.517422 0.0
16.086331 1.521649 0.0
17.303544 1.518502 0.0
18.511609 1.512859 0.0
19.703633 1.50962 0.0
20.9017 1.495885 0.0
22.115225 1.472822 0.0
-6.140512 13.063541 0.0
-4.873964 13.558064 0.0
-3.662233 14.064335 0.0
-2.619209 14.531492 0.0
-1.306526 14.232247 0.0
-0.107234 13.181453 0.0
0.839923 12.168657 0.0
1.669264 11.182079 0.0
2.3508 10.194759 0.0
2.933396 9.080199 0.0
3.666438 7.92922 0.0
6.423905 6.13586 0.0
4.527474 6.857337 0.0
-23.331646 13.504354 0.0
-22.248645 13.457053 0.0
-21.004029 13.47887 0.0
-19.757069 13.509133 0.0
-18.520799 13.541365 0.0
-17.296687 13.562246 0.0
-16.080007 13.573062 0.0
-14.866565 13.577317 0.0
-13.653714 13.578133 0.0
-12.41934 13.569716 0.0
-23.343662 1.929172 0.0
-23.002556 3.047389 0.0
-23.097843 4.455455 0.0
-23.138512 5.761744 0.0
-23.153481 7.050305 0.0
-23.163971 8.33997 0.0
[...]
CELL_DATA 1211
SCALARS pressure float 1
LOOKUP_TABLE default
0.7331705075
0.3257492221
0.4194907742
0.3596914753
0.7398146632
0.5651357743
1.000000083e-10
0.7087956039
0.5965041643
0.5699191835
0.1730013198
1.000000083e-10
1.101863831
0.508443281
9.999999717e-11
0.1764300143
0.2318140166
0.5897096093
0.2196936294
0.5594781995
0.3838448755
0.564706273
0.706802047
0.7092089963
0.7092985119
0.7093023052
0.6861719906
0.7093025189
1.151673423
0.5971188205
0.70928891
0.6814253089
0.6855682659
0.6424274346
1.153320082
0.689109
0.08428873925
0.7050153582
0.5585313468
0.7085427412
1.151856838
0.9218670305
1.000000083e-10
0.7092879799
0.7742753377
0.7087610205
0.5778888137
0.8088262635
1.116002141
0.7566777699
0.6943298109
0.6751863583
0.6788224702
0.6865579234
0.7004669087
0.7478824526
0.6503120959
0.7721389828
0.7007122088
0.6599952161
0.6428348077
0.6420801261
1.000000083e-10
0.03720624519
0.904072398
0.862848487
0.9328942539
0.1599847208
0.5652264682
0.5939969549
0.5648680838
0.7478774751
0.5615529835
0.8657848251
0.5584698176
1.048385059
0.8592257661
0.5488834329
1.000000083e-10
0.946315119
0.9481389603
0.9475659599
0.9014522288
0.5910806344
0.9015578332
0.5811858103
0.7282276603
0.9024934556
0.9239877155
0.1726546123
0.6488244439
1.000000083e-10
1.000000083e-10
9.999999717e-11
0.9019422331
0.5869979344
0.9034477289
9.999999717e-11
0.7701152284
0.552447598
1.000000083e-10
0.6482111051
0.6414074272
0.5934210388
0.6641096945
0.7804241363
0.6582875963
0.7622289674
0.7601432166
0.7764686328
0.775307638
0.7734700956
0.6617222217
0.6654792289
0.7733684953
0.7316688467
0.6662643879
0.7589161002
0.7676963528
0.6483794935
0.6843710285
0.7118561213
0.862865647
0.5167135277
0.6537959109
0.6204271909
0.7399167833
0.6502436617
0.5331543174
0.6748399765
0.5542495477
0.5873655402
1.000000083e-10
0.7781469266
0.7629255582
9.999999717e-11
0.2535383337
0.7466977264
0.748939938
0.674155087
0.5606486527
0.5499792822
0.709300334
0.7093003611
0.7092985685
0.7093003486
0.7093022903
0.01949213126
0.7093025077
0.641819344
0.7093003638
0.6528358776
0.5062287401
0.5501517042
0.5412861816
0.6201040422
0.7093069588
0.6543660016
1.475839116
0.5716825936
0.6838817221
0.5494781706
0.6086790165
0.6799450488
0.6980124746
1.020260266
0.6536093164
0.0871822961
0.6022773383
0.6078724154
0.6972053757
0.7093025145
0.6001021954
0.6038897475
0.7487931131
0.6137937155
0.7087623599
0.6239279859
0.7093057363
0.6578139598
0.6513396202
0.7084853661
0.7092138133
0.7093040212
0.7069317077
0.6931848531
0.6986954628
0.7484378516
1.000000083e-10
0.6417941111
0.6591058049
0.6904196232
0.598320862
0.649204627
0.6855596144
0.7093053626
0.649723539
0.7092808199
0.6512067596
1.000000083e-10
0.7083903139
1.000000083e-10
0.02705181215
0.6512103009
0.7093036369
0.2828768091
0.6549092227
0.7520493716
0.5936918471
0.1436795814
0.6515119215
0.5982710534
0.6129722066
0.6997122714
0.7243371123
0.6989122342
0.7080018797
0.6958494583
0.7243858767
0.6964505625
0.703808108
0.7147327887
0.7041050895
0.7229171564
0.7267785851
0.7385168273
0.7054821883
0.752528189
0.7092329313
0.7548566023
0.7088286825
0.7545362419
0.7190351507
0.6857842065
0.709564792
0.6759245982
0.7166596585
0.7101400606
0.7581342614
0.6693269251
0.7185931835
0.7768083053
0.6663725354
0.6595096578
0.7783250938
0.7622005243
0.7199209136
0.7556865988
0.6533766223
0.7822830136
0.1617848563
9.999999717e-11
0.9478203604
0.9477068592
0.9480856385
0.947642986
0.9018842141
0.9017130508
0.5822928795
0.9476938991
0.5619556708
0.5966095609
0.7556525391
1.000000083e-10
0.6563368358
1.000000083e-10
0.6493857006
0.5835530881
0.6509760969
9.999999717e-11
0.6516082171
0.7451763114
0.5895827263
0.9289814698
0.8980710451
0.5889446719
0.8498491208
0.2850046991
0.5962999039
0.5937207445
0.7251085623
0.9016215228
0.6326855271
0.6039947223
0.7568119783
0.6033142644
0.7089039341
0.6391316453
0.8054169248
0.7238787239
0.6524581911
0.8059562918
0.9487323111
0.7600269449
0.9467338384
0.7880512838
0.8972838132
0.7615758226
0.7439569971
0.7626816423
0.7539291838
0.7162037023
0.8169145109
0.8047796395
0.5976572867
0.8039935556
0.6902544897
0.5734749923
0.8056744426
0.5431679995
0.08896415544
0.6482599444
0.7592361992
0.9566181072
0.7263836592
0.7317083495
0.6083514696
0.5774293815
0.6511073837
0.7415150339
0.6459578583
0.6553088589
0.6458770983
0.6591692455
0.6095362684
0.6458119844
0.6416941283
0.6583012207
0.5987926142
0.6585268047
0.5958203318
0.658799086
0.6688955291
0.6594383109
0.6503913015
0.64354609
0.6859089623
0.6444778632
0.6973642949
0.7140257633
0.6972074412
0.6868217293
0.6469425882
0.6993565927
0.649234499
0.7105646723
0.7071280455
0.7212697361
0.7128894106
0.7194999647
0.7085873826
0.6703264448
0.7192950766
0.6853577059
0.7176953969
0.7047499783
0.7122326177
0.7235622494
0.7042384289
0.7375430826
0.5969945801
0.712996433
0.7476155853
0.5942968559
0.6901636458
0.5948290878
0.7143895448
0.764726318
0.6145865153
0.6879960065
0.7009688555
0.6830832255
0.6498240605
0.3033258227
0.6972693884
0.69349685
0.6892956127
0.6639093027
0.7091609402
0.6579573013
0.7093057252
0.7093057349
0.7093053709
0.7093069209
0.6123343056
0.6058404122
0.6855078424
0.6518210719
0.600722235
0.654481306
0.6907803065
0.683995548
0.7021689744
0.6909833405
0.6553968969
0.696720044
0.6010332323
0.6915265286
0.7048054749
0.5930493736
0.7091419081
0.5998510442
0.6898732694
0.7093069288
0.6912160785
0.7093069622
0.6917276179
0.692875398
0.7027569793
0.6936329701
0.7093081087
0.705181668
0.7093047311
0.7093078
0.7092834431
0.7052797454
0.7093076654
0.6463809796
0.6860568225
0.6857214178
0.7055003743
0.7020819302
0.6973261567
0.5929430557
0.7093077596
0.6466947709
0.7093042394
0.7091225052
0.7092175186
0.6490052275
0.6464261389
0.7016194894
0.7093076025
0.5964925883
0.6913568995
0.5969617076
0.6896284464
0.6575493038
0.6911738206
0.7021358465
0.7113049348
0.7098790987
0.6980637465
0.7033794316
0.7074851464
0.7075396114
0.7111576015
0.7163016589
0.7088110397
0.7081503132
0.7229588361
0.7060570527
0.7093849305
0.7089486339
0.7269953092
0.7278149285
0.7036673714
0.7047511322
0.7292826557
0.7299065259
0.7007775278
0.7102764526
0.7303250195
0.6997150251
0.7102565961
0.7341521914
0.7102085035
0.736759853
0.7277854214
0.6656777335
0.7600614139
0.6508290358
0.8058796356
0.8056321597
0.8060263474
0.7606444412
0.5917588216
0.7605523308
0.5910952364
0.590911043
0.5990985854
0.7167629736
0.6906895065
0.6459317098
0.6083947631
0.6053419133
0.7019741035
0.7018551951
0.6501140267
0.7095644773
0.5913169808
0.7893888385
0.7557915608
0.6072277898
0.7598737454
0.6036442522
0.6921362974
0.7599613667
0.6911627487
0.7603565284
0.6911619073
0.6911200069
0.7087891147
0.6963425569
0.7089595746
0.7231480754
0.7254357124
0.7254826177
0.8050391549
0.7553907579
0.7153363806
0.7145790345
0.7229156267
0.7164011617
0.6454171287
0.7021852708
0.7113073774
0.6580591097
0.724564686
0.7235898283
0.7025145621
0.653768266
0.6547324982
0.702250504
0.7149640269
0.6018454389
0.6965661135
0.6042517321
0.6924662429
0.6677670102
0.6899634087
0.6966255074
0.6921897857
0.6908833686
0.6903586736
0.6969105539
0.6898126874
0.7077160212
0.6970958707
0.6894709691
0.7075333057
0.6956535827
0.7054168857
0.6862275362
0.7077908596
0.7079658936
0.6861757129
0.7079343104
0.685952073
0.7070675181
0.708580877
0.6970005119
0.6909822145
0.7082056594
0.6903636286
0.7000110649
0.6898327637
0.7092282985
0.6904380783
0.6939692279
0.7101589149
0.7121234976
0.6998359767
0.709980872
0.7092545057
0.7109710485
0.711912221
0.7106259502
0.7162767971
0.7085724802
0.7092818411
0.7077662939
0.7189908553
0.7107808789
0.7230319745
0.7253836715
0.6895625729
0.7257866257
0.7245631748
0.70393469
0.701601008
0.7099342784
0.7115395922
0.708599759
0.6681768586
0.6686206598
0.7088009935
0.7040971728
0.7063815109
0.7026253276
0.7091476323
0.7092851897
0.7027451242
0.7024077812
0.7093078018
0.6896974927
0.7089189204
0.7052489225
0.7078676946
0.7021310587
0.7045774959
0.7093081047
0.7023742508
0.6922870524
0.7092894113
0.7060785679
0.6034029327
0.7000314473
0.7076623821
0.7045700665
0.7082991393
0.7020448136
0.7092812337
0.6891862059
0.7093081031
0.7093080134
0.7078095317
0.701490149
0.709308017
0.7092357515
0.7093080128
0.7093079139
0.7093077599
0.708437143
0.7093081258
0.7078958092
0.7092960997
0.7015355382
0.7079381124
0.7089903086
0.7017514458
0.7016841743
0.707670475
0.7014252543
0.7093078751
0.7092939196
0.7075456006
0.7015685609
0.7014331313
0.7088557143
0.7075015158
0.6893233382
0.6903238715
0.7017079202
0.7087876886
0.7076855306
0.7076688938
0.7079991488
0.7096098562
0.7094559049
0.7104239525
0.7086840074
0.7099393739
0.7101593587
0.7093174209
0.7098535908
0.7092845428
0.7111778528
0.7115536994
0.7090713067
0.7093473974
0.7091296793
0.7093410985
0.7121222433
0.7119997015
0.7077147581
0.7094494971
0.7066883698
0.7090992977
0.7238128405
0.720835315
0.7087598976
0.7127239549
0.7029891203
0.7237320669
0.7146890813
0.7023076109
0.7023377725
0.7253343594
0.6922924375
0.7091610932
0.7152587224
0.6903259826
0.7098409777
0.7077202664
0.7013731026
0.709367535
0.7099387509
0.7076492343
0.7016080664
0.7021778346
0.6912831561
0.707537047
0.7234035703
0.714650615
0.7015191666
0.7144525934
0.6930891595
0.7096611813
0.715173001
0.7077955183
0.7078148586
0.7088204129
0.7092357674
0.7153247886
0.7088718735
0.7256294309
0.7145684691
0.7096787281
0.7092227092
0.710690716
0.7047234051
0.7146034701
0.6881507521
0.7083590938
0.6898120994
0.7075999408
0.7031861428
0.7105543892
0.7031546126
0.7104110702
0.7029985302
0.7028477818
0.7090574254
0.7080011553
0.6921009806
0.6901969014
0.7025750992
0.7089275859
0.7091077248
0.7094296515
0.7074831317
0.7088774681
0.7079156506
0.707807191
0.7087895373
0.7078789009
0.7088295964
0.7079133217
0.7055519218
0.708958554
0.7055998991
0.7089211443
0.7092245618
0.7056244202
0.7092351789
0.7054515859
0.7092169093
0.7051986443
0.7075904187
0.7055504752
0.7064136982
0.714010499
0.7083410747
0.7095415375
0.708936299
0.7094659671
0.7092242377
0.7093775673
0.709325717
0.7092049372
0.7091038463
0.709310976
0.7093031485
0.7096285831
0.7093395954
0.7093373769
0.7093185764
0.7112864118
0.707484671
0.7092762097
0.7103284517
0.7093257366
0.7109906885
0.7106818449
0.7090551503
0.7077798333
0.7055379553
0.7028026679
0.6975020687
0.7075455997
0.7061097888
0.7092197824
0.7089763447
0.7093099579
0.7088965626
0.7093081074
0.7088725066
0.7093081066
0.7088432033
0.7093040452
0.7092000032
0.7075769312
0.7092900973
0.7088370132
0.7077334082
0.7078688377
0.7089380047
0.7024549673
0.7085354777
0.7092259091
0.7093062076
0.708796734
0.7075242328
0.7092188476
0.7093081258
0.7092475603
0.7092930308
0.7087877677
0.7093076445
0.7093081066
0.7093065403
0.7093081318
0.7092274735
0.7074437333
0.7090057493
0.7087879125
0.7092298825
0.7092931257
0.7093055117
0.7092861111
0.7093076704
0.7087998515
0.7092892946
0.7093078219
0.7075185189
0.7092200452
0.7092871531
0.7075567425
0.7092458034
0.7092041093
0.7093096194
0.7093900745
0.7093210651
0.7093148982
0.7094122466
0.7094500628
0.7093156476
0.7093089827
0.709305988
0.709308598
0.7093612388
0.7093549143
0.7088892831
0.7096901626
0.7106094603
0.7106904647
0.7088429914
0.708951871
0.709221197
0.7079653341
0.7087837639
0.7092901802
0.7093317754
0.7092298699
0.7088306749
0.7093771308
0.7094188782
0.709288149
0.7096314209
0.7089368817
0.707997344
0.7093212464
0.7096721636
0.7092519224
0.7106349806
0.7106609636
0.7093340478
0.7092539584
0.7097318672
0.7092914816
0.7076261539
0.7092557776
0.7078629189
0.7092251913
0.7093054833
0.7089663588
0.7093612907
0.7092984544
0.7093027486
0.7093076569
0.7078998745
0.7092456349
0.7092337818
0.7078563686
0.7088416883
0.7092931965
0.7089742242
0.7092187793
0.7092240903
0.7092221234
0.708998834
0.7091986447
0.7090137145
0.7093054541
0.7090299933
0.7092078145
0.7077692205
0.7092812407
0.7084317882
0.7093038084
0.7092926227
0.7093216449
0.7093059088
0.7093403756
0.7093114066
0.7093084399
0.7093279728
0.709362684
0.7081969281
0.7093735373
0.7094467069
0.7089493112
0.709409957
0.7093102649
0.7097492938
0.7096994869
0.709217869
0.7092936898
0.7088033308
0.7092412496
0.7048124259
0.7090115838
0.7077116638
0.7087418271
0.7091184487
0.7093076805
0.7092883398
0.7093078104
0.7093126965
0.7093078884
0.7092338005
0.7093060417
0.7092944649
0.7093081301
0.7093081104
0.709291439
0.7092189857
0.709308131
0.7093059335
0.7092888502
0.709247789
0.709294461
0.7093049885
0.7092327782
0.7093078601
0.7092906319
0.7093081295
0.7092212643
0.7093081309
0.7093061167
0.7093079199
0.7093081294
0.7093079044
0.709307722
0.7093051588
0.7093053332
0.7092949567
0.7092880149
0.709288204
0.709308082
0.7093080612
0.7092882405
0.7093052309
0.7093080824
0.7092301469
0.7092875154
0.7092325529
0.7088146614
0.7093051553
0.7092037961
0.7093073708
0.7093042225
0.709307541
0.70930493
0.7093109891
0.7093090595
0.7094900449
0.7093753971
0.7092950271
0.7093216816
0.7093212931
0.70937301
0.7092983543
0.709322026
0.7093059243
0.7092890503
0.7092880766
0.7093079935
0.7092896499
0.7093057611
0.7093081247
0.7093056
0.7087863528
0.7072299076
0.7093204854
0.7092976813
0.7092980278
0.7093080827
0.7093694361
0.7093063418
0.7093098714
0.709369848
0.7093101486
0.7093084382
0.7093104541
0.7093931458
0.7093105403
0.7092548901
0.7092574404
0.7093096343
0.7093069912
0.7093080072
0.7092536037
0.7093062247
0.70929409
0.7092989967
0.7092854072
0.709307611
0.7093057261
0.7093075336
0.7092936978
0.7093076474
0.7093074452
0.7093081241
0.7093077094
0.7093080741
0.7093053817
0.709295438
0.7093144979
0.7093084314
0.7093203436
0.7093060688
0.7093128192
0.7092982119
0.7093071487
0.7093263478
0.709308727
0.7093233075
0.7093087201
0.7093115947
0.7092292968
0.7093075458
0.7093077678
0.7092504737
0.7093042198
0.7093086271
0.7092967884
0.7093080876
0.7093077194
0.7093081319
0.7093081318
0.7093081302
0.7093080323
0.709308112
0.7093050297
0.7093081318
0.709307456
0.7093081254
0.7093081025
0.7093075833
0.7093081265
0.7093054079
0.709308124
0.709308132
0.7093080925
0.709308132
0.7093033544
0.7092874575
0.7093078116
0.7093051881
0.7093054921
0.7093076652
0.7093054481
0.7093081242
0.7093054072
0.7093078089
0.7093080785
0.709307816
0.7093089297
0.709310226
0.7093077464
0.7093084096
0.709309754
0.7093077252
0.7093098901
0.7093076947
0.7093081154
0.7093076673
0.7093109622
0.7093081256
0.7093054956
0.7093081436
0.7093084161
0.7093066121
0.70930813
0.7093079673
0.7093084577
0.7093081302
0.7093081313
0.7093081671
0.7093072069
0.7093081248
0.709308125
0.709308177
0.7093070546
0.7093081349
0.7093079197
0.7093081442
0.7093080763
0.7093060908
0.709307715
0.7093081252
0.7093081305
0.7093077339
0.7093080716
0.7093081244
0.7093089154
0.7093079616
0.709308539
0.709306952
0.7093085548
0.7093081329
0.7093080935
0.7093086891
0.7093057433
0.7093081386
0.7093063265
0.7093081733
0.7092758644
0.7093081247
0.7093078645
0.7093032925
0.7093080887
0.7093081244
0.7093081192
0.709308132
0.7093081314
0.7093080698
0.7093081003
0.7093081291
0.709308132
0.709308101
0.7093081316
0.709308132
0.7093080808
0.7093081319
0.709308075
0.7093081306
0.709308129
0.709308132
0.7093080897
0.709308132
0.7093081322
0.7093080856
0.7093080826
0.7093081307
0.7093081238
0.709308132
0.7093081099
0.7093079252
0.7093081653
0.7093081325
0.7093081375
0.7093081347
0.709308132
0.7093082013
0.7093081314
0.7093081157
0.7093081319
0.709308132
0.7093081254
0.7093072057
0.7093081093
0.7093082054
0.709308132
0.7093080832
0.7093081277
0.7093081321
0.7093080052
0.7093080945
0.709308132
0.709308132
0.7093081318
0.7093081314
0.709308132
0.7093081313
0.7093081313
0.709308132
0.7093081316
0.7093081315
0.7093081319
0.7093081313
0.7093081331
0.709308132
0.7093081304
0.7093081319
0.7093081406
0.7093081314
0.7093081309
0.709308132
0.709308132
0.7093081319
0.7093081319
0.7093081307
0.7093081314
0.709308132
0.709308132
0.7093081322
0.709308132
0.709308132
SCALARS mach float 1
LOOKUP_TABLE default
0.09316820923
1.340412341
0.3607366865
2.883496391
0.08813027419
0.3708368785
77085.22213
0.10001347
1.497969789
1.486640551
0.8527619349
72204.53651
1.800023279
1.546200809
56899.16447
0.7243581652
3.154238411
1.472387793
3.190436031
1.175639949
0.1564838558
0.3612899993
0.09854370674
0.1000655116
0.1001072093
0.1001056987
2.157034217
0.1001057137
1.572599998
0.1704320253
0.100104626
0.08727670574
0.1499430705
0.04207000805
1.678506465
0.09190393854
1.626111293
0.09942453781
0.3572155943
0.09483557117
1.644188234
2.004730272
76304.09955
0.1001047735
2.094641416
0.1000113099
0.3694952637
1.445253937
1.839843882
0.06475336059
0.1016759093
0.09224889432
0.08916165385
0.09260418349
0.09647949229
0.07682443539
0.06011690986
0.06147546684
0.0926259054
0.05714147776
0.04349136498
0.04087720611
157549.5494
2.8771828
0.2685322647
1.540160221
1.869226751
0.9073530331
0.3709522034
1.340942335
0.36640439
0.07466720281
0.3721926439
2.253024913
0.3723710873
1.850071377
1.817185937
0.2217212932
73264.13501
0.3050747787
0.3007105154
0.3002823563
0.2659972977
1.633580536
0.2661060553
1.61212645
0.2915446913
0.2667257862
0.3488526429
4.222495484
0.1175175557
88152.51845
87871.81221
52395.78365
0.2663218832
1.654677363
0.2680504039
55625.41785
1.517400464
0.2100485817
72476.90787
0.1158665575
0.03968527821
0.1465917318
0.06314238631
0.05206794923
0.05206327511
0.06036294437
0.06161154004
0.05430803137
0.05567488807
0.05714460134
0.05968918201
0.06652915513
0.06969941567
0.08124770639
0.1072378763
0.06234300575
0.06386670972
0.1158771931
0.09093238956
0.1039714771
2.063680986
1.949502816
0.1120651823
1.627187888
0.08648509437
0.1165239392
0.3542749245
0.209888382
0.3679720011
0.1134022797
72010.10251
0.05332879994
0.07032432518
58351.67654
0.7911951178
0.071626296
0.03209100069
1.501273623
0.3738668054
0.3859700097
0.1001079291
0.1001079322
0.1001072286
0.1001079129
0.1001057238
3.425823079
0.1001057252
0.03814950879
0.1001079292
0.1176269253
2.448982642
0.3421894206
0.3747796522
0.06444202558
0.1001011551
0.1175160216
1.68632454
0.1342339854
0.09523451693
0.3355395212
0.1494324457
0.0856148359
0.09731932866
1.921095798
1.49717956
1.563394234
0.1257658418
0.122147266
0.08869295998
0.1001057204
0.1257978207
0.1728828432
1.376125485
0.1445037705
0.1001065631
0.1363577095
0.1001024062
0.1150499361
0.1183532132
0.1000145906
0.1000657099
0.1001015437
0.09859536801
0.1007477494
0.09756264346
1.974039053
72333.45874
0.03992569463
0.05475373467
0.1018623619
1.482583894
0.1157515025
0.07771474788
0.1001023374
0.1207886677
0.100099462
0.1148799499
68325.12728
0.1000179182
79037.18242
3.290928353
0.1218814579
0.1001016303
2.583697254
0.11498581
1.378595816
0.1098412658
0.6710405177
0.1161393081
0.1669386439
0.1414523869
0.09966583351
0.09969209367
0.102518595
0.1005533168
0.09403981832
0.09015808125
0.09502696932
0.09433983921
0.0934053073
0.09775858168
0.09286465913
0.09064357914
0.0845014299
0.09825052547
0.08079033446
0.1000558984
0.07173133481
0.09995644914
0.06761755743
0.09434652434
0.09539262703
0.1005976476
0.08557750201
0.09464755165
0.099400303
0.06334565276
0.07661707196
0.09227644072
0.05375241016
0.07010558905
0.07725486177
0.05281978314
0.0598154021
0.09086813284
0.06463230885
0.06723695848
1.283703652
0.6189252808
59224.05003
0.3004865831
0.3004132409
0.3006402931
0.3003551606
0.2663294437
0.2662218309
1.676566344
0.3004019534
1.765609444
1.472108243
0.07905077033
83616.90913
0.1098328064
61256.66549
0.1171804427
1.636925526
0.1169434997
53811.73739
0.1143225378
0.07999253329
1.541961629
0.3443840983
0.283498511
1.512851394
1.86754033
0.3864220381
0.1438850902
0.1442745545
0.1155231202
0.266152266
0.08326229681
0.1712612664
1.680119504
0.1318051774
0.1000828569
0.1584350481
0.188739355
0.1864444428
0.1202393598
0.190214985
0.3011209775
0.1483743258
0.3057693685
0.1959148395
0.2849326551
0.07104909476
0.06308092538
0.05795257089
2.704137882
0.09592437233
1.970369399
0.1881965739
0.2071436211
0.1875716899
0.1019736106
0.3564343394
0.1899164351
0.3860796832
1.47241956
0.1196034972
0.1476556941
1.85162956
0.1830209317
1.500207677
0.1492113089
0.3707209799
0.1167730718
0.269032132
0.1565918866
0.05878457553
0.1178499815
0.05292061908
0.1484500668
0.1083037765
0.03924638819