# vtk DataFile Version 3.0
FirstorderEuler solution
ASCII
DATASET UNSTRUCTURED_GRID
POINTS 673 float
26.342241 -13.28699 0.0
9.342241 -13.28699 0.0
25.127955 -13.28699 0.0
23.91367 -13.28699 0.0
22.699384 -13.28699 0.0
21.485098 -13.28699 0.0
20.270812 -13.28699 0.0
19.056527 -13.28699 0.0
17.842241 -13.28699 0.0
16.627955 -13.28699 0.0
15.41367 -13.28699 0.0
14.199384 -13.28699 0.0
12.985098 -13.28699 0.0
11.770812 -13.28699 0.0
10.556527 -13.28699 0.0
26.342241 4.71301 0.0
26.342241 3.427296 0.0
26.342241 2.141581 0.0
26.342241 0.855867 0.0
26.342241 -0.429847 0.0
26.342241 -1.715561 0.0
26.342241 -3.001276 0.0
26.342241 -4.28699 0.0
26.342241 -5.572704 0.0
26.342241 -6.858419 0.0
26.342241 -8.144133 0.0
26.342241 -9.429847 0.0
26.342241 -10.715561 0.0
26.342241 -12.001276 0.0
9.342241 4.71301 0.0
10.556527 4.71301 0.0
11.770812 4.71301 0.0
12.985098 4.71301 0.0
14.199384 4.71301 0.0
15.41367 4.71301 0.0
16.627955 4.71301 0.0
17.842241 4.71301 0.0
19.056527 4.71301 0.0
20.270812 4.71301 0.0
21.485098 4.71301 0.0
22.699384 4.71301 0.0
23.91367 4.71301 0.0
25.127955 4.71301 0.0
-9.461749 16.762785 0.0
-8.851018 15.727887 0.0
-7.643912 15.833538 0.0
-6.56175 16.497727 0.0
-5.421878 17.057547 0.0
-4.22328 17.474446 0.0
-2.97506 17.703168 0.0
-1.706546 17.717887 0.0
-0.454967 17.510251 0.0
0.738528 17.081097 0.0
1.813986 16.410046 0.0
2.738939 15.541466 0.0
3.54016 14.556472 0.0
4.262391 13.511657 0.0
4.943851 12.439681 0.0
5.599125 11.351471 0.0
6.240279 10.254863 0.0
6.877149 9.155758 0.0
7.509236 8.053899 0.0
8.132212 6.946866 0.0
8.743389 5.833275 0.0
-26.461749 16.762785 0.0
-25.247463 16.762785 0.0
-24.033178 16.762785 0.0
-22.818892 16.762785 0.0
-21.604606 16.762785 0.0
-20.39032 16.762785 0.0
-19.176035 16.762785 0.0
-17.961749 16.762785 0.0
-16.747463 16.762785 0.0
-15.533178 16.762785 0.0
-14.318892 16.762785 0.0
-13.104606 16.762785 0.0
-11.89032 16.762785 0.0
-10.676035 16.762785 0.0
-26.461749 -1.237215 0.0
-26.461749 0.048499 0.0
-26.461749 1.334214 0.0
-26.461749 2.619928 0.0
-26.461749 3.905642 0.0
-26.461749 5.191356 0.0
-26.461749 6.477071 0.0
-26.461749 7.762785 0.0
-26.461749 9.048499 0.0
-26.461749 10.334214 0.0
-26.461749 11.619928 0.0
-26.461749 12.905642 0.0
-26.461749 14.191356 0.0
-26.461749 15.477071 0.0
-9.461749 -1.237215 0.0
-10.676035 -1.237215 0.0
-11.89032 -1.237215 0.0
-13.104606 -1.237215 0.0
-14.318892 -1.237215 0.0
-15.533178 -1.237215 0.0
-16.747463 -1.237215 0.0
-17.961749 -1.237215 0.0
-19.176035 -1.237215 0.0
-20.39032 -1.237215 0.0
-21.604606 -1.237215 0.0
-22.818892 -1.237215 0.0
-24.033178 -1.237215 0.0
-25.247463 -1.237215 0.0
9.057562 -12.04808 0.0
8.752682 -10.813986 0.0
8.427982 -9.584959 0.0
8.084412 -8.36107 0.0
7.72396 -7.142045 0.0
7.348469 -5.927565 0.0
6.956232 -4.718396 0.0
6.542915 -3.516277 0.0
6.104204 -2.323199 0.0
5.635914 -1.141429 0.0
5.131587 0.025386 0.0
4.580287 1.170706 0.0
3.970726 2.286035 0.0
3.285322 3.35621 0.0
2.500708 4.355551 0.0
1.591849 5.24254 0.0
0.539945 5.952305 0.0
-0.6477 6.394399 0.0
-1.911401 6.481296 0.0
-3.151754 6.218126 0.0
-4.311916 5.702591 0.0
-5.375063 5.007718 0.0
-6.338326 4.179341 0.0
-7.202162 3.247593 0.0
-7.962143 2.229297 0.0
-8.611319 1.137018 0.0
-9.155683 -0.011337 0.0
10.044371 -12.43646 0.0
8.024035 4.75629 0.0
-10.026781 15.712465 0.0
-10.302207 -0.12462 0.0
24.710163 -12.117687 0.0
23.387221 -12.125543 0.0
22.117317 -12.170608 0.0
20.880961 -12.194029 0.0
19.654245 -12.208596 0.0
18.433619 -12.217683 0.0
17.216868 -12.222535 0.0
16.001968 -12.224578 0.0
14.787139 -12.223512 0.0
13.560909 -12.222768 0.0
12.321164 -12.237015 0.0
11.082715 -12.284774 0.0
25.348686 2.58488 0.0
25.254061 1.506492 0.0
25.23733 0.239748 0.0
25.232954 -1.045487 0.0
25.237431 -2.334798 0.0
25.239418 -3.62226 0.0
25.239917 -4.908701 0.0
25.241196 -6.194431 0.0
25.243627 -7.484297 0.0
25.249476 -8.779399 0.0
25.264265 -10.06036 0.0
25.358205 -11.148698 0.0
9.947555 3.636152 0.0
11.172442 3.639903 0.0
12.392517 3.64298 0.0
13.610558 3.646116 0.0
14.826653 3.648657 0.0
16.041421 3.650269 0.0
17.255549 3.651029 0.0
18.469503 3.651203 0.0
19.681683 3.651235 0.0
20.890888 3.644962 0.0
22.112344 3.621685 0.0
23.377226 3.569633 0.0
24.703001 3.551931 0.0
-8.032707 14.833627 0.0
-6.80688 15.195282 0.0
-5.615704 15.68612 0.0
-4.423453 16.141555 0.0
-3.230873 16.512181 0.0
-2.24284 16.84127 0.0
-1.217096 16.630781 0.0
-0.17984 16.518806 0.0
0.657278 15.818978 0.0
1.888099 14.825833 0.0
2.810961 13.504387 0.0
3.596001 12.387648 0.0
4.303569 11.308179 0.0
4.964312 10.228941 0.0
5.617594 9.138982 0.0
6.288627 8.055317 0.0
6.934845 7.00807 0.0
7.468861 5.924857 0.0
-24.82978 15.593554 0.0
-23.506933 15.601482 0.0
-22.237113 15.646625 0.0
-21.00083 15.670117 0.0
-19.77418 15.684743 0.0
-18.553619 15.693884 0.0
-17.336936 15.69881 0.0
-16.122119 15.700969 0.0
-14.907934 15.701647 0.0
-13.693997 15.701649 0.0
-12.479078 15.701821 0.0
-11.252843 15.703687 0.0
-25.468223 0.890779 0.0
-25.376076 1.969024 0.0
-25.363068 3.2356 0.0
-25.35795 4.52079 0.0
-25.359335 5.810131 0.0
-25.359844 7.097604 0.0
-25.359856 8.384046 0.0
-25.361002 9.669794 0.0
-25.363394 10.959778 0.0
-25.369212 12.25507 0.0
-25.383956 13.536167 0.0
-25.477835 14.624541 0.0
-11.516024 -0.240966 0.0
-12.528448 -0.450013 0.0
-13.56172 -0.247353 0.0
-14.820883 -0.166973 0.0
-16.087538 -0.147823 0.0
-17.337414 -0.152171 0.0
-18.571507 -0.161293 0.0
-19.796359 -0.168548 0.0
-21.01749 -0.16661 0.0
-22.244219 -0.145359 0.0
-23.503503 -0.093899 0.0
-24.823637 -0.076226 0.0
10.180579 -11.260952 0.0
9.704638 -9.912611 0.0
9.321571 -8.687546 0.0
8.961518 -7.468407 0.0
8.59135 -6.243683 0.0
8.203526 -5.018623 0.0
7.79489 -3.797109 0.0
7.361493 -2.580952 0.0
6.894219 -1.371175 0.0
6.398867 -0.169651 0.0
5.895424 1.046178 0.0
5.295683 2.262425 0.0
4.553588 3.417786 0.0
3.725006 4.48659 0.0
2.816662 5.476602 0.0
1.783433 6.387504 0.0
0.53429 7.104794 0.0
-0.988348 7.644247 0.0
-2.576953 7.390769 0.0
-3.948764 7.00645 0.0
-5.225398 6.382082 0.0
-6.365425 5.547599 0.0
-7.396332 4.615176 0.0
-8.363778 3.596202 0.0
-9.394354 2.456795 0.0
-9.896265 1.065273 0.0
8.697126 3.621715 0.0
-9.295433 14.684828 0.0
24.122958 -10.849149 0.0
22.748995 -11.03736 0.0
21.50391 -11.084838 0.0
20.262841 -11.114977 0.0
19.030374 -11.136544 0.0
17.806837 -11.150832 0.0
16.58923 -11.158667 0.0
15.370935 -11.153407 0.0
14.136729 -11.138141 0.0
12.884662 -11.146492 0.0
24.104367 2.31138 0.0
24.122248 0.930083 0.0
24.098001 -0.368214 0.0
24.125347 -1.671577 0.0
24.135605 -2.958512 0.0
24.138118 -4.243847 0.0
24.141846 -5.529688 0.0
24.144396 -6.820245 0.0
24.12518 -8.132699 0.0
24.148268 -9.445568 0.0
10.588584 2.562058 0.0
11.803585 2.566969 0.0
13.020944 2.573875 0.0
14.239256 2.58007 0.0
15.455703 2.584692 0.0
16.670364 2.587459 0.0
17.88412 2.588623 0.0
19.09151 2.588165 0.0
20.291376 2.581094 0.0
21.503084 2.558929 0.0
22.730143 2.512389 0.0
-7.127147 13.957769 0.0
-5.865258 14.380616 0.0
-4.646903 14.849591 0.0
-3.446051 15.29238 0.0
-2.100241 15.660575 0.0
-0.640691 15.56657 0.0
0.302087 14.5148 0.0
1.327377 13.419927 0.0
2.213715 12.312508 0.0
2.979579 11.254923 0.0
3.651393 10.194324 0.0
4.314149 9.100095 0.0
5.03419 8.010091 0.0
5.772518 6.983927 0.0
6.530013 4.906361 0.0
-24.242767 14.325059 0.0
-22.868961 14.513447 0.0
-21.624019 14.561123 0.0
-20.383098 14.591444 0.0
-19.150779 14.613153 0.0
-17.927388 14.627583 0.0
-16.70993 14.635614 0.0
-15.495291 14.639109 0.0
-14.281668 14.640045 0.0
-13.067508 14.640054 0.0
-11.833376 14.637994 0.0
-24.239021 1.163934 0.0
-24.26505 2.534851 0.0
-24.22886 3.824381 0.0
-24.244708 5.134206 0.0
-24.254858 6.428764 0.0
-24.257935 7.717326 0.0
-24.261843 9.004243 0.0
-24.264405 10.295342 0.0
-24.245157 11.608245 0.0
-24.26818 12.921385 0.0
-11.156127 0.860215 0.0
-12.536218 0.642573 0.0
-13.982188 0.868184 0.0
-15.337235 0.945944 0.0
-16.653572 0.954661 0.0
-17.933644 0.937136 0.0
-19.194279 0.919723 0.0
-20.444255 0.907839 0.0
-21.671674 0.908344 0.0
-22.886602 0.952618 0.0
10.971454 -10.108003 0.0
10.52933 -8.984014 0.0
10.191208 -7.804032 0.0
9.836783 -6.577638 0.0
9.459661 -5.339594 0.0
9.059032 -4.100444 0.0
8.633292 -2.859972 0.0
8.161705 -1.619764 0.0
7.644628 -0.404507 0.0
7.152267 0.784702 0.0
6.807498 2.16564 0.0
5.934603 3.49272 0.0
5.047148 4.638538 0.0
4.117855 5.670407 0.0
3.160555 6.694295 0.0
2.022563 7.833861 0.0
0.460081 8.425001 0.0
-0.789374 9.088035 0.0
-2.102153 8.640033 0.0
-3.48601 8.306699 0.0
-5.032501 7.953759 0.0
-6.342098 6.972412 0.0
-7.487659 6.054022 0.0
-8.607983 5.072106 0.0
-9.661377 4.008217 0.0
7.357412 3.572901 0.0
9.382032 2.550362 0.0
-10.565806 14.640962 0.0
-8.449117 13.64512 0.0
23.211622 -10.028335 0.0
22.128437 -9.980788 0.0
20.883594 -10.002262 0.0
19.636393 -10.032199 0.0
18.399883 -10.06415 0.0
17.175542 -10.084753 0.0
15.956097 -10.08044 0.0
14.72494 -10.047777 0.0
11.607615 -11.18571 0.0
13.451957 -10.014854 0.0
23.183214 1.51898 0.0
22.865147 0.34354 0.0
23.017408 -1.028848 0.0
23.035541 -2.297111 0.0
23.038667 -3.577868 0.0
23.045149 -4.865976 0.0
23.056526 -6.159191 0.0
23.049909 -7.443899 0.0
22.894749 -8.833572 0.0
11.241145 1.50261 0.0
12.439432 1.512187 0.0
13.651293 1.514177 0.0
14.869689 1.517422 0.0
16.086331 1.521649 0.0
17.303544 1.518502 0.0
18.511609 1.512859 0.0
19.703633 1.50962 0.0
20.9017 1.495885 0.0
22.115225 1.472822 0.0
-6.140512 13.063541 0.0
-4.873964 13.558064 0.0
-3.662233 14.064335 0.0
-2.619209 14.531492 0.0
-1.306526 14.232247 0.0
-0.107234 13.181453 0.0
0.839923 12.168657 0.0
1.669264 11.182079 0.0
2.3508 10.194759 0.0
2.933396 9.080199 0.0
3.666438 7.92922 0.0
6.423905 6.13586 0.0
4.527474 6.857337 0.0
-23.331646 13.504354 0.0
-22.248645 13.457053 0.0
-21.004029 13.47887 0.0
-19.757069 13.509133 0.0
-18.520799 13.541365 0.0
-17.296687 13.562246 0.0
-16.080007 13.573062 0.0
-14.866565 13.577317 0.0
-13.653714 13.578133 0.0
-12.41934 13.569716 0.0
-23.343662 1.929172 0.0
-23.002556 3.047389 0.0
-23.097843 4.455455 0.0
-23.138512 5.761744 0.0
-23.153481 7.050305 0.0
-23.163971 8.33997 0.0
[...]
CELL_DATA 1211
SCALARS pressure float 1
LOOKUP_TABLE default
0.7191340789
0.6106368544
0.6355435603
0.7257109521
0.7301787996
0.641133544
0.5843487995
0.7093025015
0.7040408163
0.7002878668
0.617421393
0.5871252422
0.7600030508
0.7001005753
0.6095538128
0.6095003937
0.7031558846
0.7025662648
0.7110410742
0.6731808765
0.6247694312
0.642004097
0.7092543132
0.7093028125
0.7093030423
0.7093059249
0.7511935963
0.7093059164
0.7523984046
0.6848677824
0.7093058918
0.7057078195
0.7171705416
0.6640253088
0.7469885831
0.7014534222
0.614267532
0.7088938454
0.6401281338
0.7086695598
0.7589808716
0.7562374766
0.5838104459
0.7093059118
0.7568342733
0.7093023692
0.6458551066
0.7318865397
0.873478341
0.7278828556
0.7030629153
0.6842979089
0.6895023997
0.694848841
0.7076432525
0.7236508381
0.6687837491
0.7494390082
0.7085601832
0.6891430094
0.6642516781
0.6638443892
0.6978574123
0.6511535502
0.7899600546
0.7447583146
0.7518223134
0.6192220044
0.6419472497
0.6996918188
0.6406747184
0.7247263235
0.6402886231
0.7557459313
0.6382279522
0.774850133
0.8871358724
0.6779255303
0.5863757174
0.874219108
0.8725831203
0.8719944621
0.788121331
0.704553715
0.7882296851
0.7038433868
0.7336798093
0.7886800218
0.8796210471
0.7054679397
0.7022020231
0.5921546074
0.5705506866
0.6058319867
0.7883717605
0.7045417788
0.7896151832
0.5935098931
0.7302912905
0.6053583871
0.607161979
0.7018944201
0.6650689427
0.6812709662
0.6912504066
0.7573952411
0.6885438825
0.7309691414
0.7297034649
0.7536920331
0.7528034696
0.7512191161
0.6900131382
0.6916933377
0.7522090059
0.7136236872
0.7030009894
0.7290276431
0.7477343108
0.7018193758
0.6985983899
0.7104369707
0.7586385586
0.705098292
0.7022961566
0.71732424
0.7217970635
0.7024721333
0.6239152134
0.7087883138
0.6401309055
0.6695865204
0.6074103096
0.7556708435
0.7528962125
0.6087025334
0.6957211004
0.7235036364
0.7495104458
0.7183739975
0.6469116898
0.6438958118
0.709303014
0.7093030185
0.7093030051
0.7093030278
0.7093059085
0.6093806988
0.7093059103
0.6637568469
0.7093030205
0.7022914307
0.731137695
0.6396600409
0.6378703965
0.6656117192
0.7093080267
0.7022714616
0.7666590278
0.67194678
0.7077892919
0.630153616
0.6835186558
0.7055622149
0.7087920477
0.7615900974
0.7085831321
0.6155768827
0.6810316222
0.6823221772
0.7081839818
0.7093059128
0.6809488775
0.6835981136
0.7270374057
0.6858722416
0.7093067261
0.6892514833
0.7093076747
0.7037729089
0.702589499
0.7093026605
0.7093027763
0.7093080278
0.7092558348
0.7085474294
0.7088139783
0.7155918271
0.5843086604
0.6636914316
0.6888982773
0.708360621
0.7023858827
0.702238513
0.704660141
0.7093076791
0.7022880764
0.7093076726
0.7021660713
0.5809282534
0.7093022159
0.5831798952
0.6144090611
0.7021739463
0.7093080301
0.7051096981
0.7032968407
0.7248398379
0.6799250277
0.6004175215
0.7026366086
0.6837487686
0.6861882611
0.7045731309
0.7156386293
0.7051223366
0.7091947519
0.7040508365
0.7119271544
0.7009128501
0.7069643212
0.7115351986
0.7088194462
0.7181868746
0.7168944307
0.7214451917
0.7089664862
0.7365975495
0.7093076637
0.72637241
0.7093005627
0.7265729767
0.7112421958
0.6994682045
0.7093390602
0.6951690616
0.7098930906
0.7093200266
0.728617298
0.6923843248
0.7101116993
0.7541931576
0.6915721662
0.6738135092
0.7555880241
0.7310045948
0.7102575663
0.7290108784
0.6699591253
0.7377721474
0.6052631205
0.5995008589
0.8723166809
0.8721947133
0.8725755648
0.8721302576
0.7884090791
0.7883346317
0.7049974201
0.8721888046
0.7060376174
0.7037669294
0.7409066395
0.5828340416
0.7026034472
0.6124337462
0.7023095903
0.6918515573
0.7027323518
0.6089778794
0.7021071515
0.7239209624
0.7001592975
0.8790273069
0.7973986344
0.7030124329
0.7535489885
0.615348053
0.6823747588
0.6821009308
0.7098870588
0.7882722221
0.6810792834
0.6820208548
0.7283526745
0.6831880928
0.709307124
0.6885201357
0.7278427233
0.714194702
0.7025529643
0.7281982728
0.873243375
0.7138065063
0.8750931497
0.7283635137
0.7980265904
0.744630713
0.7246441784
0.7444264189
0.771282943
0.7099274663
0.7549429454
0.7276815261
0.6745089199
0.7274862471
0.708350313
0.6429524018
0.7281455271
0.638733403
0.6115302358
0.7021826746
0.7137206703
0.7570976433
0.7145268175
0.7296289078
0.6836990904
0.6485116085
0.702290923
0.73546722
0.6903619257
0.691101849
0.7023193638
0.6892146731
0.6832609588
0.7012633782
0.6635979242
0.6885828226
0.6805052881
0.6886817441
0.6804782731
0.6887838361
0.6966669432
0.6889854478
0.7021396176
0.6645157867
0.7046758743
0.6650537279
0.7081993839
0.709823212
0.7081757341
0.7048319709
0.6670699074
0.7084140711
0.6686355466
0.7093307932
0.7092198376
0.7104122237
0.709449625
0.7102130666
0.7092936408
0.6815714701
0.7101924675
0.6923707351
0.7099966119
0.7062850457
0.7095803076
0.7195136703
0.7090157771
0.7290346607
0.6798957243
0.7096345978
0.7355177585
0.6798322277
0.7083504675
0.6755930112
0.7097537579
0.7462767603
0.6836692889
0.7129583036
0.709130098
0.7079596149
0.7015411709
0.6503328449
0.7081739326
0.707149037
0.708304253
0.7042212499
0.7093077347
0.7031406639
0.7093076719
0.7093076735
0.7093076712
0.7093080265
0.6818115921
0.6826045087
0.7045837783
0.7019357174
0.6817143227
0.702621895
0.7083805493
0.705318481
0.7091660368
0.7083687449
0.7025573051
0.7081284663
0.6822300627
0.7084824868
0.7092341762
0.6817145789
0.7093077064
0.6801518885
0.7083294015
0.7093080279
0.7083979725
0.709308027
0.7084417632
0.7084973344
0.709176351
0.7085543434
0.7093081319
0.7092350965
0.7093081191
0.7093081196
0.7093076636
0.709240507
0.7093081303
0.701923544
0.7047045543
0.7046351172
0.7091600373
0.7091616885
0.7081959001
0.6800063028
0.7093081197
0.701767467
0.7093081194
0.7093077698
0.7093080563
0.7017866884
0.7017351766
0.7091563293
0.7093081303
0.68015697
0.7084596247
0.6832985859
0.7083176719
0.7036156043
0.7084270739
0.7078042274
0.7094910351
0.7093165687
0.7069810344
0.7081762669
0.7091329597
0.7088675679
0.7097215394
0.70991518
0.7093003943
0.7092647382
0.7120799031
0.709026168
0.7093087949
0.7093023668
0.7124037023
0.7126983679
0.708799019
0.7084437779
0.7130681745
0.7132216197
0.7084998473
0.7093226666
0.7133154985
0.7084047175
0.7093224558
0.7142559336
0.7093233554
0.7150023766
0.7129086071
0.7038866971
0.7138236848
0.7026427222
0.7279590257
0.7278945332
0.7279921528
0.7138858364
0.6815493201
0.7138757755
0.6811788216
0.6809694705
0.6807082282
0.7099655662
0.7083929353
0.7017004779
0.683747216
0.6812974416
0.7091633872
0.7091590796
0.7020508552
0.7093115428
0.6809068096
0.7282752304
0.7138435075
0.6817436087
0.7138143849
0.6834126241
0.7084807606
0.7138076496
0.7084253228
0.7138532347
0.7084388244
0.7084438206
0.7093068115
0.7085512459
0.7093072814
0.709933378
0.7099000674
0.7099035635
0.7277270898
0.7138077299
0.7093981952
0.7097101504
0.71237955
0.7099107293
0.7012512031
0.7091690744
0.7093805317
0.7029857961
0.7098632593
0.7098288834
0.7091750278
0.7027510941
0.7025763707
0.7091673973
0.7093916836
0.682248334
0.7085132853
0.6829017905
0.7084717245
0.7039374828
0.7083213325
0.7082305339
0.7084352451
0.7083810074
0.7083928828
0.7081495429
0.7083538851
0.7092965629
0.7081708471
0.7083346063
0.7092952297
0.7086113739
0.7091559291
0.7047354325
0.7092838903
0.7092872467
0.7047103725
0.7092866538
0.7046288778
0.7092243559
0.7093033222
0.7077110131
0.7058373922
0.7092939282
0.7056420528
0.708461543
0.7054117955
0.7093061703
0.7054217115
0.7061761434
0.7093213895
0.7094134398
0.707455602
0.7093172361
0.7093077757
0.7093662845
0.7094025047
0.7095555438
0.7107164585
0.7092848098
0.7093080783
0.7092481536
0.7111701951
0.7093613384
0.711991506
0.712444401
0.7083151751
0.7124401702
0.7120619119
0.7094318975
0.7091544989
0.7093542601
0.7107315917
0.709312699
0.7040497943
0.7059142215
0.7093068286
0.7092275742
0.7091011869
0.7091738862
0.7093078113
0.7093081163
0.709178882
0.7091718035
0.7093081197
0.7083274362
0.7093071625
0.7091484165
0.709297785
0.7091617984
0.7091359038
0.7093081321
0.7091677713
0.7084489805
0.7093081271
0.7092729473
0.6821218113
0.7090930584
0.7092958779
0.7092262496
0.70930245
0.7091650938
0.7093081142
0.7083119395
0.709308132
0.7093081303
0.7092973648
0.7091530751
0.7093081303
0.7093080726
0.7093081303
0.7093081319
0.7093081195
0.70930313
0.709308132
0.7092979077
0.709308129
0.7091558156
0.7092867274
0.7093062782
0.7091579591
0.7091566984
0.7092960247
0.7091533363
0.7093081319
0.7093081284
0.7092953402
0.7091533118
0.7091522182
0.7093070085
0.7092951395
0.7083181649
0.7083709016
0.7091581876
0.709306802
0.7092965842
0.709296346
0.7092557349
0.7093127153
0.709310467
0.7093493477
0.7092825063
0.7093321153
0.7093370638
0.7093081849
0.7093154542
0.7093080822
0.7093693394
0.7093848784
0.7093046255
0.7093082058
0.7093054764
0.7093081925
0.7094125599
0.7094075848
0.7092482081
0.7093089613
0.7092028095
0.7093039901
0.710751724
0.7104206829
0.7092977156
0.7094412847
0.7091716794
0.7098325761
0.7093868924
0.7091754464
0.709173752
0.7098970406
0.70846313
0.7093076349
0.7093968948
0.7083709208
0.7093155323
0.7092967887
0.7091512979
0.7093081711
0.7093173413
0.7092961453
0.7091552713
0.7091650535
0.7083957421
0.7092952357
0.7099446558
0.7094003813
0.7091503834
0.7093829778
0.7085047952
0.7093088323
0.7093953791
0.7092975131
0.7092975692
0.709306883
0.7093080733
0.7093980323
0.7093070463
0.7099096868
0.7093975906
0.7093088718
0.70930567
0.7093158752
0.7092634827
0.7097825529
0.7081356543
0.7093069711
0.708299066
0.7092956714
0.7091893472
0.7093149984
0.7091893169
0.7093141718
0.7091853063
0.7091806519
0.7093072202
0.7092989929
0.7084421984
0.7083523786
0.709150289
0.7093071869
0.7093038805
0.7093084437
0.7092791772
0.7093070191
0.709298506
0.7092842852
0.7093068125
0.7092856289
0.709306883
0.7092862786
0.7091623137
0.7093072524
0.7091643414
0.7093059773
0.7093079601
0.709165539
0.7093079855
0.7091571782
0.7093079594
0.7091447343
0.7092804348
0.7091631536
0.7091889633
0.7095040032
0.7092729376
0.7093094932
0.7092946932
0.7093089711
0.7093068899
0.7093114272
0.7093081699
0.7093075395
0.7093076439
0.709308134
0.7093081306
0.7093124821
0.7093081937
0.7093081903
0.7093081499
0.7093815458
0.7092949495
0.7093080172
0.7093525218
0.7093081653
0.7093662634
0.7093521638
0.7094233736
0.7092821561
0.7092332797
0.7091796979
0.7089178004
0.7092954035
0.7092469929
0.7093080589
0.7093032469
0.7093081331
0.7093070976
0.709308132
0.7093070296
0.7093081319
0.7093069348
0.7093081313
0.7093079286
0.7092955709
0.7093081274
0.7093068962
0.7092964366
0.7092976026
0.7093072259
0.7091734443
0.7093052527
0.7093080622
0.7093081319
0.7093068276
0.7092952403
0.7093080582
0.709308132
0.7093080832
0.7093081282
0.7093068101
0.709308132
0.7093081319
0.7093081319
0.7093081321
0.7093079671
0.7092946669
0.7093063829
0.7093067992
0.7093080666
0.7093081219
0.7093081319
0.7093081263
0.709308132
0.7093068398
0.7093081272
0.709308132
0.7092951872
0.7093080595
0.7093081266
0.709295487
0.7093077896
0.7093075257
0.709308133
0.709308612
0.7093081556
0.7093081363
0.7093086526
0.7093088552
0.7093081369
0.7093081322
0.7093081141
0.7093081323
0.7093082428
0.7093082321
0.7093070955
0.7093088969
0.7093153567
0.7093158562
0.7093069536
0.7093072658
0.7093080592
0.7092986606
0.7093067914
0.7093081274
0.7093081754
0.7093080674
0.7093069189
0.7093085283
0.7093087215
0.7093081269
0.7093087692
0.7093072127
0.7092989623
0.7093081348
0.7093088575
0.7093080842
0.7093155197
0.7093156797
0.7093081513
0.7093080895
0.7093090004
0.7093081278
0.7092954987
0.7093080987
0.7092979047
0.7093080628
0.7093081319
0.7093073055
0.7093081677
0.7093081301
0.7093081304
0.709308132
0.7092980121
0.7093080729
0.7093080709
0.7092976998
0.7093057661
0.7093081283
0.7093061724
0.7093079465
0.70930806
0.7093079543
0.7093063369
0.7093080378
0.709306438
0.7093081319
0.7093065488
0.7093080473
0.7092969995
0.7093081248
0.7093019383
0.7093081317
0.7093080402
0.7093084606
0.7093081252
0.7093083193
0.7093081342
0.7093081321
0.7093081721
0.7093084033
0.7093021765
0.7093084622
0.709308911
0.7093073726
0.7093086529
0.7093081333
0.7093139158
0.7093141067
0.7093080568
0.7093081288
0.7093068317
0.7093080795
0.7090913314
0.70930742
0.7092965579
0.7093040687
0.7093063995
0.709308132
0.7093080925
0.709308132
0.709308135
0.709308132
0.7093080709
0.7093081319
0.7093081287
0.7093081321
0.7093081321
0.7093081278
0.7093080581
0.7093081321
0.7093081319
0.7093081269
0.709308085
0.7093081228
0.7093081314
0.7093080685
0.709308132
0.7093081276
0.7093081321
0.7093080601
0.7093081321
0.7093081319
0.709308132
0.7093081321
0.709308132
0.709308132
0.7093081314
0.7093081315
0.7093081232
0.7093081269
0.7093081269
0.7093081321
0.7093081321
0.709308127
0.7093081318
0.7093081321
0.709308068
0.7093081267
0.7093080702
0.7093068783
0.7093081318
0.7093080434
0.7093081319
0.7093081294
0.7093081319
0.7093081298
0.7093081583
0.7093081327
0.7093085529
0.7093081783
0.7093081287
0.7093081349
0.7093081348
0.7093081751
0.7093081298
0.709308135
0.7093081319
0.7093081271
0.7093081269
0.7093081321
0.7093081273
0.7093081319
0.7093081321
0.7093081319
0.7093067293
0.7092919359
0.7093081346
0.7093081295
0.7093081297
0.7093081321
0.7093081725
0.7093081319
0.7093081322
0.7093081728
0.7093081322
0.7093081321
0.7093081333
0.7093085489
0.7093081336
0.7093080906
0.7093080928
0.7093081321
0.709308132
0.7093081321
0.7093080888
0.7093081319
0.7093081285
0.7093081297
0.7093081199
0.709308132
0.7093081319
0.709308132
0.7093081222
0.709308132
0.709308132
0.7093081321
0.709308132
0.7093081321
0.7093081315
0.7093081238
0.7093081458
0.7093081321
0.7093081536
0.7093081308
0.709308135
0.7093081296
0.709308132
0.7093081638
0.7093081322
0.7093081567
0.7093081322
0.7093081341
0.7093080672
0.7093081318
0.709308132
0.7093080937
0.7093081294
0.7093081322
0.7093081121
0.709308132
0.709308132
0.7093081321
0.7093081321
0.7093081321
0.7093081321
0.7093081321
0.7093081318
0.7093081321
0.709308132
0.7093081321
0.7093081321
0.709308132
0.7093081321
0.7093081319
0.7093081321
0.7093081321
0.7093081321
0.7093081321
0.7093081315
0.7093081267
0.709308132
0.7093081318
0.7093081319
0.709308132
0.7093081319
0.7093081321
0.7093081319
0.709308132
0.7093081321
0.709308132
0.7093081345
0.7093081325
0.709308132
0.7093081321
0.7093081321
0.709308132
0.7093081322
0.709308132
0.7093081321
0.709308132
0.7093081337
0.7093081321
0.7093081319
0.7093081321
0.7093081321
0.7093081319
0.7093081321
0.7093081321
0.7093081321
0.7093081321
0.7093081321
0.7093081321
0.709308132
0.7093081321
0.7093081321
0.7093081321
0.709308132
0.7093081321
0.709308132
0.7093081321
0.7093081321
0.7093081319
0.709308132
0.7093081321
0.7093081321
0.709308132
0.7093081321
0.7093081321
0.7093081322
0.709308132
0.7093081321
0.709308132
0.7093081321
0.7093081321
0.7093081321
0.7093081322
0.7093081319
0.7093081321
0.7093081319
0.7093081321
0.7093081058
0.709308132
0.709308132
0.7093081255
0.7093081321
0.7093081321
0.7093081321
0.7093081321
0.7093081321
0.7093081321
0.7093081321
0.7093081321
0.7093081321
0.7093081321
0.7093081321
0.7093081321
0.7093081321
0.7093081321
0.7093081321
0.7093081321
0.7093081321
0.7093081321
0.7093081321
0.7093081321
0.7093081321
0.7093081321
0.7093081321
0.7093081321
0.7093081321
0.7093081321
0.7093081321
0.709308132
0.7093081321
0.7093081321
0.7093081321
0.7093081321
0.7093081321
0.7093081321
0.7093081321
0.7093081321
0.7093081321
0.7093081321
0.7093081321
0.709308132
0.7093081321
0.7093081321
0.7093081321
0.7093081321
0.7093081321
0.7093081321
0.709308132
0.7093081321
0.7093081321
0.7093081321
0.7093081321
0.7093081321
0.7093081321
0.7093081321
0.7093081321
0.7093081321
0.7093081321
0.7093081321
0.7093081321
0.7093081321
0.7093081321
0.7093081321
0.7093081321
0.7093081321
0.7093081321
0.7093081321
0.7093081321
0.7093081321
0.7093081321
0.7093081321
0.7093081321
0.7093081321
0.7093081321
0.7093081321
0.7093081321
0.7093081321
0.7093081321
0.7093081321
SCALARS mach float 1
LOOKUP_TABLE default
0.09616458747
0.6503359389
0.1728062698
0.8722736645
0.09383856737
0.2055606066
0.1717265362
0.100102472
0.6782494463
0.7022287049
0.1983244531
0.1714027385
0.7419487583
0.7319918013
0.1786606997
0.2017767549
0.7394566999
0.7314563191
0.7738975891
0.6237780327
0.1523378358
0.2045864258
0.1000879845
0.1001051445
0.1001051776
0.1001022171
0.7346967195
0.1001022259
0.7222751136
0.1042732897
0.1001022421
0.09837991253
0.09898191832
0.06006376642
0.7398026067
0.09679403214
0.2011952632
0.1000140603
0.2062866784
0.09918318766
0.7384665187
0.7404756382
0.1700063368
0.1001022212
0.7433624705
0.1001025019
0.1965770772
0.6775686396
0.7234111672
0.08464282603
0.1002861691
0.09052757804
0.09280809228
0.09608649269
0.0994332523
0.09069576343
0.07054103581
0.07111666971
0.09944724335
0.08211017787
0.0608146916
0.05946006555
0.7363495388
0.1923729528
0.1757031203
0.6806544289
0.7099838761
0.1973832477
0.2038444692
0.714230042
0.2066172017
0.08836221024
0.2071990737
0.7475492702
0.2059734464
0.73335646
0.7277544518
0.1966306925
0.1707781248
0.2467382151
0.2452661464
0.2448170153
0.1741374105
0.7253901771
0.1742362879
0.7174552414
0.1567114301
0.1746201961
0.2575727374
0.969741781
0.1004862253
0.2434957384
0.1624335998
0.1707258135
0.1743539545
0.7266447946
0.1754085741
0.1681358721
0.6783744874
0.1300149402
0.1798724643
0.10054603
0.05923106911
0.1041173166
0.08469940838
0.06308963566
0.08065501837
0.08177013407
0.08279429181
0.06589154099
0.0669331672
0.06853280775
0.08318672871
0.08573657244
0.07564931088
0.09630710926
0.09385354223
0.08333043481
0.07453137687
0.1005615752
0.09517940652
0.1012294321
0.7450103945
0.7808865151
0.1004000714
0.6956565182
0.09314557556
0.1004528247
0.2468949114
0.101713595
0.2074139999
0.08311462657
0.1995594481
0.06390338573
0.06633530688
0.1764163286
0.08840056629
0.08811969041
0.06121879571
0.6669793723
0.1892103333
0.1959813554
0.1001052072
0.1001052026
0.1001052158
0.1001051931
0.100102234
0.1762766702
0.1001022322
0.05833987888
0.1001052005
0.1005028522
0.7375299088
0.2072808802
0.2069673188
0.06335198904
0.1001000583
0.1004500885
0.7474806519
0.1003502119
0.09954300525
0.2384020268
0.1039295087
0.09831993594
0.1000540575
0.7435587107
0.7145228748
0.2014004333
0.1045196484
0.104411095
0.09904217215
0.1001022296
0.1037819472
0.1046494596
0.7287410556
0.1034791042
0.1000999663
0.102522344
0.1001004198
0.1002776889
0.1004619792
0.1000999551
0.100105185
0.1001000567
0.1000879518
0.1000432814
0.1000544528
0.7446530899
0.1695881911
0.0589808165
0.08146689046
0.1001219114
0.730445399
0.1005444309
0.09569922681
0.1001004153
0.1006093577
0.1001004044
0.1004894962
0.1698578188
0.1000999988
0.1697644006
0.2026359406
0.1004652873
0.1001000544
0.7320859338
0.1001813696
0.6808404817
0.1049418022
0.1646403657
0.1004447917
0.1039691836
0.1032838
0.1004551994
0.09917801368
0.1004723084
0.100127984
0.09798833888
0.09830092771
0.09848400364
0.09834764603
0.09804468302
0.09986626488
0.09784849837
0.09657045987
0.09357438185
0.09994287766
0.08804326902
0.1000997238
0.08767791482
0.1000975546
0.08608533205
0.09923111251
0.09695234106
0.100126878
0.09241356523
0.09966207832
0.1000898026
0.08383677683
0.08862380165
0.09940645148
0.06540673787
0.08651317087
0.0806523462
0.06436639742
0.0815301203
0.09925494394
0.08305420864
0.07434545495
0.6626203309
0.1647800641
0.1674843131
0.2450673926
0.2449731995
0.2452666913
0.2449220129
0.1743909468
0.1743286329
0.7311431395
0.2449681911
0.7353832037
0.7329889401
0.08228450509
0.1705683512
0.1004166497
0.2032082877
0.1004729212
0.7401142707
0.1004475122
0.1730545321
0.1004974553
0.09028866861
0.7357041397
0.2567341658
0.1834963409
0.729244795
0.7233079921
0.1981264428
0.1038770775
0.1038094224
0.1006707289
0.174273434
0.1038427742
0.1045195466
0.7185062835
0.1036365894
0.1000999127
0.1045719031
0.1181871132
0.1121607715
0.1004065855
0.1185355993
0.2457762014
0.1045293
0.2474153888
0.1197144934
0.184065568
0.07683334042
0.08580380994
0.07060236623
0.7990221782
0.09970653356
0.7378857453
0.1180324762
0.1084129057
0.1178459726
0.1001235426
0.2026205077
0.1184846061
0.2061249086
0.2016178966
0.1004669119
0.1044462953
0.7362959772
0.1121012442
0.6843896793
0.1039241321
0.1916959667
0.1004465331
0.1555489393
0.1042158994
0.08327753241
0.1005650377
0.08119509935
0.1039762692
0.09961515408