# vtk DataFile Version 3.0
FirstorderEuler solution
ASCII
DATASET UNSTRUCTURED_GRID
POINTS 673 float
26.342241 -13.28699 0.0
9.342241 -13.28699 0.0
25.127955 -13.28699 0.0
23.91367 -13.28699 0.0
22.699384 -13.28699 0.0
21.485098 -13.28699 0.0
20.270812 -13.28699 0.0
19.056527 -13.28699 0.0
17.842241 -13.28699 0.0
16.627955 -13.28699 0.0
15.41367 -13.28699 0.0
14.199384 -13.28699 0.0
12.985098 -13.28699 0.0
11.770812 -13.28699 0.0
10.556527 -13.28699 0.0
26.342241 4.71301 0.0
26.342241 3.427296 0.0
26.342241 2.141581 0.0
26.342241 0.855867 0.0
26.342241 -0.429847 0.0
26.342241 -1.715561 0.0
26.342241 -3.001276 0.0
26.342241 -4.28699 0.0
26.342241 -5.572704 0.0
26.342241 -6.858419 0.0
26.342241 -8.144133 0.0
26.342241 -9.429847 0.0
26.342241 -10.715561 0.0
26.342241 -12.001276 0.0
9.342241 4.71301 0.0
10.556527 4.71301 0.0
11.770812 4.71301 0.0
12.985098 4.71301 0.0
14.199384 4.71301 0.0
15.41367 4.71301 0.0
16.627955 4.71301 0.0
17.842241 4.71301 0.0
19.056527 4.71301 0.0
20.270812 4.71301 0.0
21.485098 4.71301 0.0
22.699384 4.71301 0.0
23.91367 4.71301 0.0
25.127955 4.71301 0.0
-9.461749 16.762785 0.0
-8.851018 15.727887 0.0
-7.643912 15.833538 0.0
-6.56175 16.497727 0.0
-5.421878 17.057547 0.0
-4.22328 17.474446 0.0
-2.97506 17.703168 0.0
-1.706546 17.717887 0.0
-0.454967 17.510251 0.0
0.738528 17.081097 0.0
1.813986 16.410046 0.0
2.738939 15.541466 0.0
3.54016 14.556472 0.0
4.262391 13.511657 0.0
4.943851 12.439681 0.0
5.599125 11.351471 0.0
6.240279 10.254863 0.0
6.877149 9.155758 0.0
7.509236 8.053899 0.0
8.132212 6.946866 0.0
8.743389 5.833275 0.0
-26.461749 16.762785 0.0
-25.247463 16.762785 0.0
-24.033178 16.762785 0.0
-22.818892 16.762785 0.0
-21.604606 16.762785 0.0
-20.39032 16.762785 0.0
-19.176035 16.762785 0.0
-17.961749 16.762785 0.0
-16.747463 16.762785 0.0
-15.533178 16.762785 0.0
-14.318892 16.762785 0.0
-13.104606 16.762785 0.0
-11.89032 16.762785 0.0
-10.676035 16.762785 0.0
-26.461749 -1.237215 0.0
-26.461749 0.048499 0.0
-26.461749 1.334214 0.0
-26.461749 2.619928 0.0
-26.461749 3.905642 0.0
-26.461749 5.191356 0.0
-26.461749 6.477071 0.0
-26.461749 7.762785 0.0
-26.461749 9.048499 0.0
-26.461749 10.334214 0.0
-26.461749 11.619928 0.0
-26.461749 12.905642 0.0
-26.461749 14.191356 0.0
-26.461749 15.477071 0.0
-9.461749 -1.237215 0.0
-10.676035 -1.237215 0.0
-11.89032 -1.237215 0.0
-13.104606 -1.237215 0.0
-14.318892 -1.237215 0.0
-15.533178 -1.237215 0.0
-16.747463 -1.237215 0.0
-17.961749 -1.237215 0.0
-19.176035 -1.237215 0.0
-20.39032 -1.237215 0.0
-21.604606 -1.237215 0.0
-22.818892 -1.237215 0.0
-24.033178 -1.237215 0.0
-25.247463 -1.237215 0.0
9.057562 -12.04808 0.0
8.752682 -10.813986 0.0
8.427982 -9.584959 0.0
8.084412 -8.36107 0.0
7.72396 -7.142045 0.0
7.348469 -5.927565 0.0
6.956232 -4.718396 0.0
6.542915 -3.516277 0.0
6.104204 -2.323199 0.0
5.635914 -1.141429 0.0
5.131587 0.025386 0.0
4.580287 1.170706 0.0
3.970726 2.286035 0.0
3.285322 3.35621 0.0
2.500708 4.355551 0.0
1.591849 5.24254 0.0
0.539945 5.952305 0.0
-0.6477 6.394399 0.0
-1.911401 6.481296 0.0
-3.151754 6.218126 0.0
-4.311916 5.702591 0.0
-5.375063 5.007718 0.0
-6.338326 4.179341 0.0
-7.202162 3.247593 0.0
-7.962143 2.229297 0.0
-8.611319 1.137018 0.0
-9.155683 -0.011337 0.0
10.044371 -12.43646 0.0
8.024035 4.75629 0.0
-10.026781 15.712465 0.0
-10.302207 -0.12462 0.0
24.710163 -12.117687 0.0
23.387221 -12.125543 0.0
22.117317 -12.170608 0.0
20.880961 -12.194029 0.0
19.654245 -12.208596 0.0
18.433619 -12.217683 0.0
17.216868 -12.222535 0.0
16.001968 -12.224578 0.0
14.787139 -12.223512 0.0
13.560909 -12.222768 0.0
12.321164 -12.237015 0.0
11.082715 -12.284774 0.0
25.348686 2.58488 0.0
25.254061 1.506492 0.0
25.23733 0.239748 0.0
25.232954 -1.045487 0.0
25.237431 -2.334798 0.0
25.239418 -3.62226 0.0
25.239917 -4.908701 0.0
25.241196 -6.194431 0.0
25.243627 -7.484297 0.0
25.249476 -8.779399 0.0
25.264265 -10.06036 0.0
25.358205 -11.148698 0.0
9.947555 3.636152 0.0
11.172442 3.639903 0.0
12.392517 3.64298 0.0
13.610558 3.646116 0.0
14.826653 3.648657 0.0
16.041421 3.650269 0.0
17.255549 3.651029 0.0
18.469503 3.651203 0.0
19.681683 3.651235 0.0
20.890888 3.644962 0.0
22.112344 3.621685 0.0
23.377226 3.569633 0.0
24.703001 3.551931 0.0
-8.032707 14.833627 0.0
-6.80688 15.195282 0.0
-5.615704 15.68612 0.0
-4.423453 16.141555 0.0
-3.230873 16.512181 0.0
-2.24284 16.84127 0.0
-1.217096 16.630781 0.0
-0.17984 16.518806 0.0
0.657278 15.818978 0.0
1.888099 14.825833 0.0
2.810961 13.504387 0.0
3.596001 12.387648 0.0
4.303569 11.308179 0.0
4.964312 10.228941 0.0
5.617594 9.138982 0.0
6.288627 8.055317 0.0
6.934845 7.00807 0.0
7.468861 5.924857 0.0
-24.82978 15.593554 0.0
-23.506933 15.601482 0.0
-22.237113 15.646625 0.0
-21.00083 15.670117 0.0
-19.77418 15.684743 0.0
-18.553619 15.693884 0.0
-17.336936 15.69881 0.0
-16.122119 15.700969 0.0
-14.907934 15.701647 0.0
-13.693997 15.701649 0.0
-12.479078 15.701821 0.0
-11.252843 15.703687 0.0
-25.468223 0.890779 0.0
-25.376076 1.969024 0.0
-25.363068 3.2356 0.0
-25.35795 4.52079 0.0
-25.359335 5.810131 0.0
-25.359844 7.097604 0.0
-25.359856 8.384046 0.0
-25.361002 9.669794 0.0
-25.363394 10.959778 0.0
-25.369212 12.25507 0.0
-25.383956 13.536167 0.0
-25.477835 14.624541 0.0
-11.516024 -0.240966 0.0
-12.528448 -0.450013 0.0
-13.56172 -0.247353 0.0
-14.820883 -0.166973 0.0
-16.087538 -0.147823 0.0
-17.337414 -0.152171 0.0
-18.571507 -0.161293 0.0
-19.796359 -0.168548 0.0
-21.01749 -0.16661 0.0
-22.244219 -0.145359 0.0
-23.503503 -0.093899 0.0
-24.823637 -0.076226 0.0
10.180579 -11.260952 0.0
9.704638 -9.912611 0.0
9.321571 -8.687546 0.0
8.961518 -7.468407 0.0
8.59135 -6.243683 0.0
8.203526 -5.018623 0.0
7.79489 -3.797109 0.0
7.361493 -2.580952 0.0
6.894219 -1.371175 0.0
6.398867 -0.169651 0.0
5.895424 1.046178 0.0
5.295683 2.262425 0.0
4.553588 3.417786 0.0
3.725006 4.48659 0.0
2.816662 5.476602 0.0
1.783433 6.387504 0.0
0.53429 7.104794 0.0
-0.988348 7.644247 0.0
-2.576953 7.390769 0.0
-3.948764 7.00645 0.0
-5.225398 6.382082 0.0
-6.365425 5.547599 0.0
-7.396332 4.615176 0.0
-8.363778 3.596202 0.0
-9.394354 2.456795 0.0
-9.896265 1.065273 0.0
8.697126 3.621715 0.0
-9.295433 14.684828 0.0
24.122958 -10.849149 0.0
22.748995 -11.03736 0.0
21.50391 -11.084838 0.0
20.262841 -11.114977 0.0
19.030374 -11.136544 0.0
17.806837 -11.150832 0.0
16.58923 -11.158667 0.0
15.370935 -11.153407 0.0
14.136729 -11.138141 0.0
12.884662 -11.146492 0.0
24.104367 2.31138 0.0
24.122248 0.930083 0.0
24.098001 -0.368214 0.0
24.125347 -1.671577 0.0
24.135605 -2.958512 0.0
24.138118 -4.243847 0.0
24.141846 -5.529688 0.0
24.144396 -6.820245 0.0
24.12518 -8.132699 0.0
24.148268 -9.445568 0.0
10.588584 2.562058 0.0
11.803585 2.566969 0.0
13.020944 2.573875 0.0
14.239256 2.58007 0.0
15.455703 2.584692 0.0
16.670364 2.587459 0.0
17.88412 2.588623 0.0
19.09151 2.588165 0.0
20.291376 2.581094 0.0
21.503084 2.558929 0.0
22.730143 2.512389 0.0
-7.127147 13.957769 0.0
-5.865258 14.380616 0.0
-4.646903 14.849591 0.0
-3.446051 15.29238 0.0
-2.100241 15.660575 0.0
-0.640691 15.56657 0.0
0.302087 14.5148 0.0
1.327377 13.419927 0.0
2.213715 12.312508 0.0
2.979579 11.254923 0.0
3.651393 10.194324 0.0
4.314149 9.100095 0.0
5.03419 8.010091 0.0
5.772518 6.983927 0.0
6.530013 4.906361 0.0
-24.242767 14.325059 0.0
-22.868961 14.513447 0.0
-21.624019 14.561123 0.0
-20.383098 14.591444 0.0
-19.150779 14.613153 0.0
-17.927388 14.627583 0.0
-16.70993 14.635614 0.0
-15.495291 14.639109 0.0
-14.281668 14.640045 0.0
-13.067508 14.640054 0.0
-11.833376 14.637994 0.0
-24.239021 1.163934 0.0
-24.26505 2.534851 0.0
-24.22886 3.824381 0.0
-24.244708 5.134206 0.0
-24.254858 6.428764 0.0
-24.257935 7.717326 0.0
-24.261843 9.004243 0.0
-24.264405 10.295342 0.0
-24.245157 11.608245 0.0
-24.26818 12.921385 0.0
-11.156127 0.860215 0.0
-12.536218 0.642573 0.0
-13.982188 0.868184 0.0
-15.337235 0.945944 0.0
-16.653572 0.954661 0.0
-17.933644 0.937136 0.0
-19.194279 0.919723 0.0
-20.444255 0.907839 0.0
-21.671674 0.908344 0.0
-22.886602 0.952618 0.0
10.971454 -10.108003 0.0
10.52933 -8.984014 0.0
10.191208 -7.804032 0.0
9.836783 -6.577638 0.0
9.459661 -5.339594 0.0
9.059032 -4.100444 0.0
8.633292 -2.859972 0.0
8.161705 -1.619764 0.0
7.644628 -0.404507 0.0
7.152267 0.784702 0.0
6.807498 2.16564 0.0
5.934603 3.49272 0.0
5.047148 4.638538 0.0
4.117855 5.670407 0.0
3.160555 6.694295 0.0
2.022563 7.833861 0.0
0.460081 8.425001 0.0
-0.789374 9.088035 0.0
-2.102153 8.640033 0.0
-3.48601 8.306699 0.0
-5.032501 7.953759 0.0
-6.342098 6.972412 0.0
-7.487659 6.054022 0.0
-8.607983 5.072106 0.0
-9.661377 4.008217 0.0
7.357412 3.572901 0.0
9.382032 2.550362 0.0
-10.565806 14.640962 0.0
-8.449117 13.64512 0.0
23.211622 -10.028335 0.0
22.128437 -9.980788 0.0
20.883594 -10.002262 0.0
19.636393 -10.032199 0.0
18.399883 -10.06415 0.0
17.175542 -10.084753 0.0
15.956097 -10.08044 0.0
14.72494 -10.047777 0.0
11.607615 -11.18571 0.0
13.451957 -10.014854 0.0
23.183214 1.51898 0.0
22.865147 0.34354 0.0
23.017408 -1.028848 0.0
23.035541 -2.297111 0.0
23.038667 -3.577868 0.0
23.045149 -4.865976 0.0
23.056526 -6.159191 0.0
23.049909 -7.443899 0.0
22.894749 -8.833572 0.0
11.241145 1.50261 0.0
12.439432 1.512187 0.0
13.651293 1.514177 0.0
14.869689 1.517422 0.0
16.086331 1.521649 0.0
17.303544 1.518502 0.0
18.511609 1.512859 0.0
19.703633 1.50962 0.0
20.9017 1.495885 0.0
22.115225 1.472822 0.0
-6.140512 13.063541 0.0
-4.873964 13.558064 0.0
-3.662233 14.064335 0.0
-2.619209 14.531492 0.0
-1.306526 14.232247 0.0
-0.107234 13.181453 0.0
0.839923 12.168657 0.0
1.669264 11.182079 0.0
2.3508 10.194759 0.0
2.933396 9.080199 0.0
3.666438 7.92922 0.0
6.423905 6.13586 0.0
4.527474 6.857337 0.0
-23.331646 13.504354 0.0
-22.248645 13.457053 0.0
-21.004029 13.47887 0.0
-19.757069 13.509133 0.0
-18.520799 13.541365 0.0
-17.296687 13.562246 0.0
-16.080007 13.573062 0.0
-14.866565 13.577317 0.0
-13.653714 13.578133 0.0
-12.41934 13.569716 0.0
-23.343662 1.929172 0.0
-23.002556 3.047389 0.0
-23.097843 4.455455 0.0
-23.138512 5.761744 0.0
-23.153481 7.050305 0.0
-23.163971 8.33997 0.0
[...]
CELL_DATA 1211
SCALARS pressure float 1
LOOKUP_TABLE default
0.7247529653
0.5006846032
0.5736758584
0.7201052895
0.7344722598
0.6108450032
0.4600672281
0.7092658595
0.6948759651
0.6860650375
0.5450673826
0.4680488829
0.8324247209
0.6785803329
0.5240399998
0.5304244345
0.6766195159
0.690103992
0.6884338148
0.600391103
0.5526428365
0.6116978384
0.7089642987
0.7092977438
0.7093018518
0.7093046126
0.7974589376
0.7093046027
0.8194674896
0.657249723
0.7093042447
0.6992328448
0.7172543867
0.654257531
0.8098313378
0.6966966799
0.5392806193
0.7079972474
0.6079944393
0.7085734461
0.8331930808
0.8151319095
0.4591142379
0.7093042551
0.8114209559
0.7092637192
0.6185861235
0.7575089372
0.9448716866
0.7389816976
0.6996797675
0.6797666922
0.6847777056
0.6913120488
0.705538768
0.7328418355
0.6602622906
0.7590907393
0.7068454702
0.6775377982
0.6545516667
0.6540140369
0.660456546
0.5749097425
0.8361532064
0.7875231739
0.8065951111
0.5496404057
0.6116243079
0.6847687798
0.6103241287
0.7337871119
0.6094793693
0.8169644756
0.6062771919
0.8492320127
0.9261520391
0.6538049481
0.4660461779
0.9087376971
0.9073734965
0.9067184185
0.8335335297
0.6957570311
0.8336673248
0.6932387385
0.7355773633
0.8343397511
0.9057412591
0.6521204681
0.6885244859
0.4943585936
0.4218092955
0.514463594
0.8338957812
0.6955367639
0.8356403832
0.4859370444
0.7556032774
0.5786923517
0.5219483935
0.6877572361
0.6551081232
0.6511690883
0.6805926256
0.7677885231
0.6765442278
0.7433389475
0.7416088235
0.7637489237
0.7627089512
0.760904035
0.6788066262
0.6813594188
0.761999099
0.7189721544
0.690686602
0.7406413181
0.7567675837
0.6875566458
0.692683896
0.7110463839
0.8189428275
0.6902391045
0.6891045165
0.7169215497
0.7289915916
0.6892097461
0.5856388019
0.6958111428
0.6074713993
0.6390216267
0.5217417021
0.7659365322
0.7615516655
0.5219395014
0.6466828749
0.7323417744
0.7540575058
0.7241130085
0.6155883567
0.610033318
0.7093018465
0.7093018514
0.7093018124
0.7093018618
0.7093045895
0.5247715173
0.7093045939
0.6538812126
0.7093018538
0.6889627238
0.7450216728
0.6060632654
0.6017446042
0.6504012433
0.7093077904
0.6892034092
0.8591781633
0.6343357018
0.7032286145
0.5979761198
0.6577872721
0.6987528481
0.7069684198
0.8298413631
0.7058092664
0.5431471523
0.6529747965
0.6552681271
0.7056993717
0.7093045975
0.6527848307
0.6572983321
0.7469023909
0.6617760987
0.7092820258
0.6680392017
0.7093071044
0.692703644
0.6896934573
0.7092473598
0.7092978636
0.7093077585
0.70897839
0.7058926645
0.7070855651
0.7339876251
0.4631383656
0.6538114115
0.677095581
0.7051283197
0.6900436302
0.6887509342
0.6989547427
0.709307111
0.6889708785
0.709306566
0.6885044661
0.4578616948
0.7092411836
0.4557701042
0.5382582295
0.6885573318
0.7093077611
0.6813975131
0.691285176
0.7418513714
0.6519729668
0.504342869
0.6896748866
0.6551844768
0.6618642695
0.7031142605
0.7191837469
0.7026623535
0.7089350667
0.700890494
0.7154365852
0.6989590822
0.7056752213
0.7127897524
0.7077416922
0.7202320471
0.7209137451
0.7281874889
0.7081959537
0.7432793739
0.7093025789
0.7372062629
0.7092512207
0.7371399749
0.7136095532
0.693909364
0.709398723
0.6872890999
0.7112985331
0.7094005289
0.7400444996
0.682958093
0.7119488396
0.7642239105
0.6814507566
0.6669297096
0.7657517698
0.743384854
0.7123906931
0.7402598748
0.6621139707
0.7677930258
0.515168414
0.4970859485
0.9070444971
0.9069180067
0.9073181127
0.9068462368
0.8339246091
0.8338087317
0.6957393763
0.9069084918
0.6962950381
0.6921632592
0.7476653273
0.4538828954
0.6897430106
0.5348765861
0.6888024477
0.6790600557
0.6898718822
0.5243792299
0.6884703385
0.732350438
0.6875607964
0.9064787919
0.8424399037
0.6907724713
0.8048811274
0.5449571184
0.6534067948
0.65263545
0.7121769514
0.8337251412
0.6532429677
0.6535491661
0.7503466342
0.6569673441
0.7092891818
0.6690582017
0.751042728
0.717695214
0.6894165944
0.7517373366
0.9080561648
0.7240213301
0.9096230409
0.7493736753
0.8431118208
0.7523366391
0.7333320099
0.752821144
0.8465791818
0.7113205932
0.8092127811
0.7507103455
0.6423793788
0.7503058249
0.7050909857
0.6150132828
0.7516049565
0.6033790679
0.5321256777
0.6885446804
0.7237576015
0.8175808846
0.7190597009
0.7502138714
0.658073418
0.6216696046
0.6889066735
0.7404234751
0.6730288917
0.6789749374
0.6888626272
0.6774846068
0.6575275063
0.6861770415
0.6537108805
0.6765928303
0.6508663341
0.6767441028
0.6526740175
0.6769095887
0.684126408
0.6772550082
0.6883308769
0.6549812717
0.6990127147
0.6556761425
0.7057474337
0.7109182211
0.705681451
0.6993711109
0.657954376
0.7064009855
0.6598403614
0.7094702572
0.7088838855
0.7128515432
0.7099974951
0.7122540151
0.7092074918
0.6761517502
0.7121902111
0.6890174472
0.7116205767
0.7056050711
0.7101815913
0.7214975848
0.7082054431
0.7330667207
0.6499496371
0.7103756732
0.7411055067
0.6516810812
0.7050762767
0.6443433913
0.7107691328
0.7545483924
0.6590940294
0.7068869863
0.7081154978
0.7024723408
0.6874451288
0.5960779715
0.7056834429
0.7035095917
0.7048595324
0.6942481579
0.7093018236
0.691417625
0.7093070987
0.7093071019
0.7093070948
0.7093077897
0.6544940264
0.6561553654
0.698817818
0.6880730381
0.6540606405
0.6901340431
0.7052337217
0.6998423611
0.7083317207
0.7052110952
0.6899355698
0.7055356326
0.6552178394
0.705560241
0.7087613133
0.6519251964
0.709301131
0.6505654657
0.7049981594
0.709307794
0.7052969154
0.7093077915
0.7054788554
0.7057269818
0.7084077163
0.7059497081
0.7093081304
0.7087854235
0.7093080338
0.7093080709
0.7093065983
0.7088137534
0.7093081163
0.6875961687
0.6990766716
0.6989261666
0.7085893386
0.7083084211
0.7057367477
0.6520400021
0.7093080715
0.6872897202
0.7093080299
0.7093007312
0.7093056872
0.6875431491
0.687206624
0.7082601241
0.7093081163
0.6503337095
0.7054773354
0.6549706719
0.7049332697
0.6921673777
0.7053921018
0.7060579659
0.7098988216
0.7093729917
0.7041994944
0.7067596996
0.7087535568
0.7084063048
0.7101705213
0.7113088472
0.7092496624
0.7090948641
0.7154117332
0.7083784898
0.709314604
0.7092650847
0.7165328385
0.7170455197
0.7076527445
0.7073507129
0.7178084658
0.718120205
0.7067261542
0.7094189735
0.7183215815
0.7064160272
0.7094172158
0.7202560068
0.7094193425
0.7217201966
0.7174029913
0.6934306284
0.7240728866
0.6894627804
0.7512825855
0.7511509543
0.7513545262
0.7242510435
0.6516146901
0.7242199341
0.6509501751
0.650603183
0.6523586589
0.7114585693
0.7052580614
0.6870326252
0.6579940083
0.654288512
0.7083117852
0.708285358
0.68813394
0.7093354179
0.6504424685
0.749373372
0.7237554028
0.6543384498
0.7240315381
0.6569627188
0.705620592
0.7240159219
0.7053864344
0.7241524471
0.7054137941
0.7054053449
0.7092834891
0.7060888336
0.7092920387
0.712185241
0.7122402229
0.7122535735
0.7508222361
0.723653977
0.7099970553
0.7107061314
0.7160402588
0.7113070748
0.6862468959
0.7083473312
0.7096685789
0.6910606666
0.7120661221
0.7118979238
0.7083885101
0.6902367866
0.6899555161
0.7083426784
0.7099498073
0.65516461
0.7060292373
0.6562100599
0.7056247412
0.6939907155
0.704975849
0.7057747618
0.7055092679
0.7052532413
0.7052583271
0.7055971292
0.705066072
0.709179044
0.7056606534
0.7049660067
0.7091642008
0.7062224837
0.7085708887
0.6991467191
0.7091268577
0.7091504039
0.6991006284
0.7091461925
0.6989465575
0.7088967938
0.7092526137
0.7046443327
0.7014577625
0.7091919743
0.701078365
0.706563423
0.7006657862
0.7092953029
0.7007761825
0.7024075371
0.7094079505
0.7098259826
0.7051607205
0.7093803643
0.7093039191
0.7096022874
0.7097766839
0.7098690558
0.712422408
0.7091896153
0.7093070424
0.7090164983
0.7134971181
0.7095734084
0.7153044441
0.7163206401
0.7049192807
0.7163771208
0.7156523796
0.7088702772
0.708251473
0.7094972874
0.7118704825
0.7092732258
0.6940134784
0.6972906918
0.7092839355
0.7086657211
0.7085950152
0.7083888966
0.7093016599
0.709307609
0.7084167747
0.7083679172
0.7093080713
0.7049697623
0.7092899126
0.7085370104
0.7091922191
0.7083124856
0.7084638104
0.709308132
0.7083522805
0.7055437552
0.7093078461
0.708992721
0.6553909292
0.7079549967
0.7091727819
0.7087148981
0.7092379724
0.7083212149
0.7093075267
0.7048809868
0.7093081318
0.7093081188
0.7091873974
0.7082388262
0.7093081188
0.7093061991
0.7093081186
0.7093081296
0.7093080703
0.7092469548
0.7093081318
0.7091939534
0.7093079557
0.7082533065
0.7091467327
0.7092856537
0.7082735196
0.7082648764
0.7091739347
0.7082369173
0.7093081295
0.7093079241
0.7091653192
0.7082429182
0.708232348
0.7092870082
0.7091625114
0.7049126589
0.7051601511
0.7082730111
0.7092833654
0.7091783721
0.7091763294
0.7090562815
0.7093430661
0.7093256395
0.7095122553
0.7091859407
0.7094255513
0.709456014
0.7093087665
0.7093665296
0.7093071339
0.7096246519
0.7096982145
0.7092810852
0.7093096681
0.7092873108
0.7093094049
0.7098221417
0.709798694
0.7090117663
0.709318124
0.7087996077
0.7092791201
0.7138135966
0.7128320123
0.7092343174
0.7099533534
0.7083862526
0.7119192259
0.7099154495
0.7083776416
0.7083738216
0.7122232325
0.7055587956
0.7092995894
0.7099873703
0.7051686482
0.709366295
0.7091811153
0.7082244566
0.7093095095
0.7093792188
0.7091744512
0.7082534141
0.7083247367
0.7052984464
0.709164375
0.7122329485
0.7099791145
0.70822889
0.7098864701
0.7057591793
0.7093224357
0.7099764553
0.7091883318
0.7091886358
0.7092849427
0.7093062174
0.70999567
0.7092877643
0.7122827515
0.709962994
0.7093232061
0.7092874467
0.7094033885
0.7087982595
0.7108856975
0.7043387662
0.7092563967
0.7049119328
0.7091695157
0.7084831925
0.7093929402
0.7084824248
0.7093830846
0.7084581729
0.708430442
0.7092928734
0.7092046473
0.7055120448
0.7051046468
0.7082745899
0.7092903714
0.7092715552
0.7093138022
0.7090927381
0.7092875303
0.709199243
0.7091294959
0.7092835279
0.7091389374
0.7092850664
0.7091435293
0.708599781
0.7092916603
0.7086092772
0.7092816965
0.7093046596
0.7086145609
0.7093051476
0.7085767425
0.7093045642
0.7085211392
0.7091019881
0.7086027861
0.7087366829
0.7102366339
0.7091323724
0.7093246055
0.7092412074
0.7093186274
0.7092986113
0.7093228722
0.7093088836
0.7093009015
0.7092992278
0.7093081995
0.7093080613
0.709342616
0.7093093985
0.7093093209
0.7093085181
0.7096704269
0.7091605859
0.709306553
0.7095253452
0.709308834
0.7096025742
0.7095384333
0.7094850641
0.709120437
0.708790018
0.7084186522
0.7071113615
0.7091656134
0.7089014444
0.7093057611
0.7092709097
0.7093081721
0.7092887442
0.7093081318
0.7092875235
0.7093081304
0.709285899
0.7093080829
0.709303924
0.7091678014
0.7093078592
0.709285372
0.7091789895
0.7091911695
0.7092910537
0.7083816675
0.7092647766
0.709305891
0.7093081173
0.7092838148
0.7091639104
0.7093057368
0.7093081318
0.7093065336
0.7093079076
0.7092834591
0.70930813
0.7093081304
0.7093081198
0.7093081321
0.7093047925
0.709157476
0.7092868559
0.7092833462
0.709306019
0.7093077769
0.7093081111
0.7093077986
0.7093081301
0.7092840123
0.7093078504
0.7093081308
0.7091633533
0.7093057784
0.7093078142
0.7091666922
0.7093039252
0.7093007689
0.7093081668
0.7093139457
0.7093086283
0.7093082851
0.7093148141
0.709317329
0.7093083035
0.7093081431
0.7093078644
0.7093081396
0.7093103513
0.7093101166
0.7092885818
0.709323701
0.7093971068
0.7094030441
0.7092861772
0.7092917078
0.7093057845
0.7092014234
0.7092831737
0.7093078632
0.7093090436
0.7093060403
0.7092854804
0.7093130934
0.7093155127
0.7093078311
0.7093211936
0.7092908384
0.7092043953
0.7093083033
0.7093229227
0.7093065882
0.7093990167
0.7094009191
0.7093087751
0.709306727
0.7093256798
0.7093078849
0.7091686658
0.7093068604
0.7091929172
0.7093058992
0.7093081106
0.709292429
0.7093093843
0.7093080014
0.7093080384
0.70930813
0.7091949081
0.7093062858
0.7093061443
0.7091913823
0.709278306
0.709307912
0.7092844524
0.7093043995
0.7093058293
0.7093045484
0.7092863246
0.7093051193
0.7092874827
0.7093081099
0.7092887785
0.7093054067
0.7091833898
0.7093077146
0.7092383309
0.7093080964
0.7093070126
0.7093102567
0.7093080044
0.7093103985
0.7093082087
0.7093081366
0.7093089467
0.7093116188
0.709228353
0.7093123419
0.7093176987
0.7092923104
0.7093147513
0.7093081789
0.7093546224
0.7093544856
0.7093057
0.7093079272
0.7092839687
0.7093063951
0.7083352762
0.7092945594
0.7091787941
0.709266265
0.7092929346
0.7093081301
0.7093073267
0.7093081276
0.7093082358
0.7093081311
0.7093061451
0.7093081155
0.709307931
0.709308132
0.709308132
0.7093078821
0.7093057382
0.709308132
0.7093081143
0.7093078372
0.7093065775
0.7093078092
0.7093080903
0.7093060899
0.709308131
0.709307872
0.709308132
0.7093057992
0.709308132
0.709308116
0.7093081312
0.7093081321
0.7093081311
0.7093081303
0.7093080927
0.7093080952
0.7093078222
0.7093078301
0.7093078336
0.7093081319
0.7093081318
0.7093078339
0.7093081089
0.7093081319
0.7093060494
0.7093078199
0.7093061208
0.7092847578
0.7093081081
0.7093052853
0.7093081215
0.7093080403
0.7093081239
0.7093080535
0.7093084014
0.7093081544
0.709316192
0.7093097426
0.7093079357
0.7093083091
0.7093083038
0.7093096447
0.7093079933
0.7093083155
0.7093081144
0.7093078449
0.709307831
0.7093081315
0.709307856
0.7093081129
0.709308132
0.7093081115
0.7092823994
0.7091310476
0.7093082948
0.7093079822
0.709307988
0.7093081319
0.7093095566
0.7093081167
0.7093081444
0.7093095659
0.7093081472
0.7093081332
0.7093081802
0.7093135169
0.7093081871
0.7093067573
0.7093068275
0.7093081433
0.7093081227
0.7093081316
0.7093067101
0.7093081169
0.7093079245
0.7093079951
0.7093076647
0.7093081298
0.7093081124
0.7093081294
0.7093077898
0.70930813
0.7093081291
0.709308132
0.7093081294
0.7093081318
0.7093080962
0.7093078414
0.7093084035
0.7093081353
0.7093085907
0.7093080866
0.7093082375
0.7093079931
0.7093081246
0.709308812
0.7093081393
0.7093086753
0.7093081393
0.709308208
0.7093060244
0.7093081216
0.7093081306
0.7093067108
0.7093080394
0.7093081391
0.7093077151
0.7093081317
0.7093081303
0.7093081321
0.7093081321
0.7093081321
0.7093081317
0.709308132
0.7093081061
0.7093081321
0.7093081279
0.709308132
0.709308132
0.7093081297
0.709308132
0.70930811
0.709308132
0.7093081321
0.709308132
0.7093081321
0.7093080842
0.7093078214
0.7093081298
0.7093081081
0.7093081107
0.7093081301
0.7093081104
0.709308132
0.70930811
0.7093081307
0.7093081319
0.7093081308
0.7093081725
0.7093081601
0.7093081303
0.7093081331
0.7093081435
0.7093081303
0.7093081445
0.7093081302
0.709308132
0.7093081301
0.709308193
0.709308132
0.7093081107
0.7093081321
0.7093081332
0.7093081202
0.7093081321
0.7093081314
0.7093081333
0.7093081321
0.709308132
0.7093081321
0.7093081263
0.709308132
0.709308132
0.7093081324
0.7093081239
0.7093081321
0.7093081312
0.7093081321
0.7093081319
0.7093081159
0.7093081291
0.709308132
0.7093081321
0.7093081292
0.7093081318
0.709308132
0.7093081422
0.7093081295
0.7093081368
0.7093081232
0.7093081372
0.7093081321
0.709308132
0.7093081388
0.7093081129
0.7093081321
0.7093081183
0.7093081323
0.7093073442
0.7093081318
0.7093081309
0.7093079865
0.709308132
0.709308132
0.709308132
0.7093081321
0.7093081321
0.7093081319
0.709308132
0.7093081321
0.7093081321
0.709308132
0.7093081321
0.7093081321
0.7093081319
0.7093081321
0.7093081319
0.7093081321
0.7093081321
0.7093081321
0.709308132
0.7093081321
0.7093081321
0.709308132
0.7093081319
0.7093081321
0.709308132
0.7093081321
0.709308132
0.7093081312
0.7093081321
0.7093081321
0.7093081321
0.7093081321
0.7093081321
0.7093081325
0.7093081321
0.709308132
0.7093081321
0.7093081321
0.709308132
0.7093081243
0.709308132
0.7093081325
0.7093081321
0.7093081319
0.709308132
0.7093081321
0.7093081314
0.709308132
0.7093081321
0.7093081321
0.7093081321
0.7093081321
0.7093081321
0.7093081321
0.7093081321
0.7093081321
0.7093081321
0.7093081321
0.7093081321
0.7093081321
0.7093081321
0.7093081321
0.7093081321
0.7093081321
0.7093081321
0.7093081321
0.7093081321
0.7093081321
0.7093081321
0.7093081321
0.7093081321
0.7093081321
0.7093081321
0.7093081321
0.7093081321
0.7093081321
0.7093081321
0.7093081321
SCALARS mach float 1
LOOKUP_TABLE default
0.09452633324
0.8936933384
0.2505408476
1.175760473
0.09201346385
0.2902076431
0.1524847336
0.1001025568
0.9003184705
0.9303078293
0.2655505689
0.1546874559
1.014171365
0.971847888
0.1920074919
0.2646813978
1.016404964
0.9676745752
1.051130222
0.8423471068
0.1974138505
0.288468789
0.09995433803
0.1001051097
0.1001063681
0.1001035634
1.015822883
0.1001035755
0.9766432049
0.1174613931
0.1001036154
0.09485113643
0.1030329401
0.05147532817
1.012155449
0.09489638258
0.2645069492
0.09984787925
0.2909897085
0.09797689901
0.9992048373
1.024037616
0.1428905922
0.1001035932
1.024648015
0.1001028853
0.2772752509
0.8997792672
0.9994826287
0.07628979057
0.100748347
0.09045131933
0.09121691427
0.09490873497
0.09857988097
0.08511254414
0.06512530161
0.06625158439
0.09795338379
0.07184723764
0.05249326664
0.05064282251
1.016630015
0.2438722268
0.2148496305
0.9142966032
0.9722652939
0.2615348868
0.2879792401
0.9364985495
0.2915141302
0.08236688479
0.2920611998
1.043605092
0.2906996272
0.994153934
0.9931752122
0.2624321017
0.1524231904
0.2735146524
0.2715389199
0.2710850833
0.2127781436
0.9676925986
0.2128979446
0.9579370907
0.2005625952
0.2134187927
0.2907811468
1.369828957
0.1025700529
0.3150913788
0.1101110865
0.1729244941
0.2130604746
0.9699812612
0.2144418062
0.1620912795
0.9036274845
0.1835567106
0.1900014084
0.1026734707
0.04983053186
0.1144616193
0.07583975078
0.05739130722
0.06923805949
0.072452627
0.07372642361
0.06013113121
0.06135710087
0.06299293534
0.07351576304
0.07768672461
0.07279050065
0.09169843561
0.09226162003
0.07442013941
0.06921454299
0.1027682436
0.09299051065
0.1020812462
1.029783955
1.05506532
0.1019089596
0.9267868841
0.08994745145
0.1023741345
0.3359923237
0.1470285648
0.2939326519
0.08526478269
0.2584480218
0.05817585789
0.06300163074
0.1806840625
0.09923491382
0.08138355911
0.05117707571
0.8853319587
0.2694277191
0.2794011614
0.1001064064
0.1001064015
0.1001064089
0.1001063906
0.1001035873
0.1831650006
0.1001035844
0.04896002183
0.100106399
0.1026775362
1.014445473
0.2946554433
0.294296357
0.05780525587
0.100100301
0.1024594297
1.014834132
0.1071905321
0.09831110109
0.325998563
0.1141503775
0.09450685735
0.09970537826
1.023960577
0.945036586
0.2621002132
0.116161581
0.1157717819
0.09670331277
0.1001035807
0.1135038716
0.1173181392
0.960376703
0.1123366752
0.1001002215
0.1093625831
0.1001010056
0.1017309422
0.1025460099
0.1000951363
0.1001051186
0.1001003025
0.0999565056
0.09993530402
0.09972838869
1.040563643
0.1430245013
0.0499832728
0.07066674461
0.1002482115
0.9670209921
0.1026423508
0.09028582727
0.1001009959
0.1030765527
0.1001009187
0.1023748921
0.1427608232
0.1000955798
0.1388034797
0.2652271783
0.1027801993
0.1001002969
0.991037126
0.1014583746
0.894685145
0.1183528044
0.1726082612
0.102313454
0.1161021056
0.1126252108
0.1007203595
0.09904868767
0.1009821947
0.1002032394
0.0966328212
0.09592921066
0.09750676709
0.09709471534
0.09658783035
0.09936239907
0.09637466172
0.0945422353
0.09008449976
0.09958079116
0.08540886292
0.1000971064
0.08094409276
0.1000822316
0.07838852846
0.09793785258
0.09579712488
0.1002061009
0.08893184628
0.0986095973
0.1000215511
0.07516996309
0.08300072309
0.0978323156
0.05961424155
0.0793078638
0.07825265117
0.05856172342
0.07203784458
0.0973697566
0.07429835295
0.07031086089
0.8650703465
0.1752631048
0.1654002905
0.2713294048
0.2712374808
0.2715248124
0.2711809709
0.2131021791
0.213013681
0.9767194767
0.271229498
0.9863832106
0.9684136675
0.08022359427
0.1407390321
0.1021101832
0.265068651
0.1024960296
0.9980852876
0.1022699566
0.1772220945
0.1023955879
0.08555917283
0.9776820915
0.2895845031
0.2247047855
0.9661849195
0.9889555209
0.2653886053
0.1135753625
0.1135289815
0.1029247893
0.212944391
0.1146331556
0.1175140749
0.9639945921
0.1145588454
0.1000992127
0.1172411552
0.1401575852
0.1305917835
0.1024551901
0.1408722525
0.2720379784
0.1144871303
0.2741936342
0.1432227773
0.2254899124
0.07362702339
0.07737006732
0.06496098146
1.129830935
0.09883424803
1.016939854
0.1398504291
0.1302592439
0.1394806039
0.1002585744
0.285676389
0.1407469326
0.2928462803
0.2652682557
0.1026786694
0.114235359
1.007841279
0.1302026269
0.9099173506
0.1140513817
0.274050482
0.1024331501
0.1959683795
0.1154198566
0.07302130662
0.1027646253
0.06997606031
0.1142808588
0.09977426726
0.04950800959
0.06954129542