# vtk DataFile Version 3.0
FirstorderEuler solution
ASCII
DATASET UNSTRUCTURED_GRID
POINTS 673 float
26.342241 -13.28699 0.0
9.342241 -13.28699 0.0
25.127955 -13.28699 0.0
23.91367 -13.28699 0.0
22.699384 -13.28699 0.0
21.485098 -13.28699 0.0
20.270812 -13.28699 0.0
19.056527 -13.28699 0.0
17.842241 -13.28699 0.0
16.627955 -13.28699 0.0
15.41367 -13.28699 0.0
14.199384 -13.28699 0.0
12.985098 -13.28699 0.0
11.770812 -13.28699 0.0
10.556527 -13.28699 0.0
26.342241 4.71301 0.0
26.342241 3.427296 0.0
26.342241 2.141581 0.0
26.342241 0.855867 0.0
26.342241 -0.429847 0.0
26.342241 -1.715561 0.0
26.342241 -3.001276 0.0
26.342241 -4.28699 0.0
26.342241 -5.572704 0.0
26.342241 -6.858419 0.0
26.342241 -8.144133 0.0
26.342241 -9.429847 0.0
26.342241 -10.715561 0.0
26.342241 -12.001276 0.0
9.342241 4.71301 0.0
10.556527 4.71301 0.0
11.770812 4.71301 0.0
12.985098 4.71301 0.0
14.199384 4.71301 0.0
15.41367 4.71301 0.0
16.627955 4.71301 0.0
17.842241 4.71301 0.0
19.056527 4.71301 0.0
20.270812 4.71301 0.0
21.485098 4.71301 0.0
22.699384 4.71301 0.0
23.91367 4.71301 0.0
25.127955 4.71301 0.0
-9.461749 16.762785 0.0
-8.851018 15.727887 0.0
-7.643912 15.833538 0.0
-6.56175 16.497727 0.0
-5.421878 17.057547 0.0
-4.22328 17.474446 0.0
-2.97506 17.703168 0.0
-1.706546 17.717887 0.0
-0.454967 17.510251 0.0
0.738528 17.081097 0.0
1.813986 16.410046 0.0
2.738939 15.541466 0.0
3.54016 14.556472 0.0
4.262391 13.511657 0.0
4.943851 12.439681 0.0
5.599125 11.351471 0.0
6.240279 10.254863 0.0
6.877149 9.155758 0.0
7.509236 8.053899 0.0
8.132212 6.946866 0.0
8.743389 5.833275 0.0
-26.461749 16.762785 0.0
-25.247463 16.762785 0.0
-24.033178 16.762785 0.0
-22.818892 16.762785 0.0
-21.604606 16.762785 0.0
-20.39032 16.762785 0.0
-19.176035 16.762785 0.0
-17.961749 16.762785 0.0
-16.747463 16.762785 0.0
-15.533178 16.762785 0.0
-14.318892 16.762785 0.0
-13.104606 16.762785 0.0
-11.89032 16.762785 0.0
-10.676035 16.762785 0.0
-26.461749 -1.237215 0.0
-26.461749 0.048499 0.0
-26.461749 1.334214 0.0
-26.461749 2.619928 0.0
-26.461749 3.905642 0.0
-26.461749 5.191356 0.0
-26.461749 6.477071 0.0
-26.461749 7.762785 0.0
-26.461749 9.048499 0.0
-26.461749 10.334214 0.0
-26.461749 11.619928 0.0
-26.461749 12.905642 0.0
-26.461749 14.191356 0.0
-26.461749 15.477071 0.0
-9.461749 -1.237215 0.0
-10.676035 -1.237215 0.0
-11.89032 -1.237215 0.0
-13.104606 -1.237215 0.0
-14.318892 -1.237215 0.0
-15.533178 -1.237215 0.0
-16.747463 -1.237215 0.0
-17.961749 -1.237215 0.0
-19.176035 -1.237215 0.0
-20.39032 -1.237215 0.0
-21.604606 -1.237215 0.0
-22.818892 -1.237215 0.0
-24.033178 -1.237215 0.0
-25.247463 -1.237215 0.0
9.057562 -12.04808 0.0
8.752682 -10.813986 0.0
8.427982 -9.584959 0.0
8.084412 -8.36107 0.0
7.72396 -7.142045 0.0
7.348469 -5.927565 0.0
6.956232 -4.718396 0.0
6.542915 -3.516277 0.0
6.104204 -2.323199 0.0
5.635914 -1.141429 0.0
5.131587 0.025386 0.0
4.580287 1.170706 0.0
3.970726 2.286035 0.0
3.285322 3.35621 0.0
2.500708 4.355551 0.0
1.591849 5.24254 0.0
0.539945 5.952305 0.0
-0.6477 6.394399 0.0
-1.911401 6.481296 0.0
-3.151754 6.218126 0.0
-4.311916 5.702591 0.0
-5.375063 5.007718 0.0
-6.338326 4.179341 0.0
-7.202162 3.247593 0.0
-7.962143 2.229297 0.0
-8.611319 1.137018 0.0
-9.155683 -0.011337 0.0
10.044371 -12.43646 0.0
8.024035 4.75629 0.0
-10.026781 15.712465 0.0
-10.302207 -0.12462 0.0
24.710163 -12.117687 0.0
23.387221 -12.125543 0.0
22.117317 -12.170608 0.0
20.880961 -12.194029 0.0
19.654245 -12.208596 0.0
18.433619 -12.217683 0.0
17.216868 -12.222535 0.0
16.001968 -12.224578 0.0
14.787139 -12.223512 0.0
13.560909 -12.222768 0.0
12.321164 -12.237015 0.0
11.082715 -12.284774 0.0
25.348686 2.58488 0.0
25.254061 1.506492 0.0
25.23733 0.239748 0.0
25.232954 -1.045487 0.0
25.237431 -2.334798 0.0
25.239418 -3.62226 0.0
25.239917 -4.908701 0.0
25.241196 -6.194431 0.0
25.243627 -7.484297 0.0
25.249476 -8.779399 0.0
25.264265 -10.06036 0.0
25.358205 -11.148698 0.0
9.947555 3.636152 0.0
11.172442 3.639903 0.0
12.392517 3.64298 0.0
13.610558 3.646116 0.0
14.826653 3.648657 0.0
16.041421 3.650269 0.0
17.255549 3.651029 0.0
18.469503 3.651203 0.0
19.681683 3.651235 0.0
20.890888 3.644962 0.0
22.112344 3.621685 0.0
23.377226 3.569633 0.0
24.703001 3.551931 0.0
-8.032707 14.833627 0.0
-6.80688 15.195282 0.0
-5.615704 15.68612 0.0
-4.423453 16.141555 0.0
-3.230873 16.512181 0.0
-2.24284 16.84127 0.0
-1.217096 16.630781 0.0
-0.17984 16.518806 0.0
0.657278 15.818978 0.0
1.888099 14.825833 0.0
2.810961 13.504387 0.0
3.596001 12.387648 0.0
4.303569 11.308179 0.0
4.964312 10.228941 0.0
5.617594 9.138982 0.0
6.288627 8.055317 0.0
6.934845 7.00807 0.0
7.468861 5.924857 0.0
-24.82978 15.593554 0.0
-23.506933 15.601482 0.0
-22.237113 15.646625 0.0
-21.00083 15.670117 0.0
-19.77418 15.684743 0.0
-18.553619 15.693884 0.0
-17.336936 15.69881 0.0
-16.122119 15.700969 0.0
-14.907934 15.701647 0.0
-13.693997 15.701649 0.0
-12.479078 15.701821 0.0
-11.252843 15.703687 0.0
-25.468223 0.890779 0.0
-25.376076 1.969024 0.0
-25.363068 3.2356 0.0
-25.35795 4.52079 0.0
-25.359335 5.810131 0.0
-25.359844 7.097604 0.0
-25.359856 8.384046 0.0
-25.361002 9.669794 0.0
-25.363394 10.959778 0.0
-25.369212 12.25507 0.0
-25.383956 13.536167 0.0
-25.477835 14.624541 0.0
-11.516024 -0.240966 0.0
-12.528448 -0.450013 0.0
-13.56172 -0.247353 0.0
-14.820883 -0.166973 0.0
-16.087538 -0.147823 0.0
-17.337414 -0.152171 0.0
-18.571507 -0.161293 0.0
-19.796359 -0.168548 0.0
-21.01749 -0.16661 0.0
-22.244219 -0.145359 0.0
-23.503503 -0.093899 0.0
-24.823637 -0.076226 0.0
10.180579 -11.260952 0.0
9.704638 -9.912611 0.0
9.321571 -8.687546 0.0
8.961518 -7.468407 0.0
8.59135 -6.243683 0.0
8.203526 -5.018623 0.0
7.79489 -3.797109 0.0
7.361493 -2.580952 0.0
6.894219 -1.371175 0.0
6.398867 -0.169651 0.0
5.895424 1.046178 0.0
5.295683 2.262425 0.0
4.553588 3.417786 0.0
3.725006 4.48659 0.0
2.816662 5.476602 0.0
1.783433 6.387504 0.0
0.53429 7.104794 0.0
-0.988348 7.644247 0.0
-2.576953 7.390769 0.0
-3.948764 7.00645 0.0
-5.225398 6.382082 0.0
-6.365425 5.547599 0.0
-7.396332 4.615176 0.0
-8.363778 3.596202 0.0
-9.394354 2.456795 0.0
-9.896265 1.065273 0.0
8.697126 3.621715 0.0
-9.295433 14.684828 0.0
24.122958 -10.849149 0.0
22.748995 -11.03736 0.0
21.50391 -11.084838 0.0
20.262841 -11.114977 0.0
19.030374 -11.136544 0.0
17.806837 -11.150832 0.0
16.58923 -11.158667 0.0
15.370935 -11.153407 0.0
14.136729 -11.138141 0.0
12.884662 -11.146492 0.0
24.104367 2.31138 0.0
24.122248 0.930083 0.0
24.098001 -0.368214 0.0
24.125347 -1.671577 0.0
24.135605 -2.958512 0.0
24.138118 -4.243847 0.0
24.141846 -5.529688 0.0
24.144396 -6.820245 0.0
24.12518 -8.132699 0.0
24.148268 -9.445568 0.0
10.588584 2.562058 0.0
11.803585 2.566969 0.0
13.020944 2.573875 0.0
14.239256 2.58007 0.0
15.455703 2.584692 0.0
16.670364 2.587459 0.0
17.88412 2.588623 0.0
19.09151 2.588165 0.0
20.291376 2.581094 0.0
21.503084 2.558929 0.0
22.730143 2.512389 0.0
-7.127147 13.957769 0.0
-5.865258 14.380616 0.0
-4.646903 14.849591 0.0
-3.446051 15.29238 0.0
-2.100241 15.660575 0.0
-0.640691 15.56657 0.0
0.302087 14.5148 0.0
1.327377 13.419927 0.0
2.213715 12.312508 0.0
2.979579 11.254923 0.0
3.651393 10.194324 0.0
4.314149 9.100095 0.0
5.03419 8.010091 0.0
5.772518 6.983927 0.0
6.530013 4.906361 0.0
-24.242767 14.325059 0.0
-22.868961 14.513447 0.0
-21.624019 14.561123 0.0
-20.383098 14.591444 0.0
-19.150779 14.613153 0.0
-17.927388 14.627583 0.0
-16.70993 14.635614 0.0
-15.495291 14.639109 0.0
-14.281668 14.640045 0.0
-13.067508 14.640054 0.0
-11.833376 14.637994 0.0
-24.239021 1.163934 0.0
-24.26505 2.534851 0.0
-24.22886 3.824381 0.0
-24.244708 5.134206 0.0
-24.254858 6.428764 0.0
-24.257935 7.717326 0.0
-24.261843 9.004243 0.0
-24.264405 10.295342 0.0
-24.245157 11.608245 0.0
-24.26818 12.921385 0.0
-11.156127 0.860215 0.0
-12.536218 0.642573 0.0
-13.982188 0.868184 0.0
-15.337235 0.945944 0.0
-16.653572 0.954661 0.0
-17.933644 0.937136 0.0
-19.194279 0.919723 0.0
-20.444255 0.907839 0.0
-21.671674 0.908344 0.0
-22.886602 0.952618 0.0
10.971454 -10.108003 0.0
10.52933 -8.984014 0.0
10.191208 -7.804032 0.0
9.836783 -6.577638 0.0
9.459661 -5.339594 0.0
9.059032 -4.100444 0.0
8.633292 -2.859972 0.0
8.161705 -1.619764 0.0
7.644628 -0.404507 0.0
7.152267 0.784702 0.0
6.807498 2.16564 0.0
5.934603 3.49272 0.0
5.047148 4.638538 0.0
4.117855 5.670407 0.0
3.160555 6.694295 0.0
2.022563 7.833861 0.0
0.460081 8.425001 0.0
-0.789374 9.088035 0.0
-2.102153 8.640033 0.0
-3.48601 8.306699 0.0
-5.032501 7.953759 0.0
-6.342098 6.972412 0.0
-7.487659 6.054022 0.0
-8.607983 5.072106 0.0
-9.661377 4.008217 0.0
7.357412 3.572901 0.0
9.382032 2.550362 0.0
-10.565806 14.640962 0.0
-8.449117 13.64512 0.0
23.211622 -10.028335 0.0
22.128437 -9.980788 0.0
20.883594 -10.002262 0.0
19.636393 -10.032199 0.0
18.399883 -10.06415 0.0
17.175542 -10.084753 0.0
15.956097 -10.08044 0.0
14.72494 -10.047777 0.0
11.607615 -11.18571 0.0
13.451957 -10.014854 0.0
23.183214 1.51898 0.0
22.865147 0.34354 0.0
23.017408 -1.028848 0.0
23.035541 -2.297111 0.0
23.038667 -3.577868 0.0
23.045149 -4.865976 0.0
23.056526 -6.159191 0.0
23.049909 -7.443899 0.0
22.894749 -8.833572 0.0
11.241145 1.50261 0.0
12.439432 1.512187 0.0
13.651293 1.514177 0.0
14.869689 1.517422 0.0
16.086331 1.521649 0.0
17.303544 1.518502 0.0
18.511609 1.512859 0.0
19.703633 1.50962 0.0
20.9017 1.495885 0.0
22.115225 1.472822 0.0
-6.140512 13.063541 0.0
-4.873964 13.558064 0.0
-3.662233 14.064335 0.0
-2.619209 14.531492 0.0
-1.306526 14.232247 0.0
-0.107234 13.181453 0.0
0.839923 12.168657 0.0
1.669264 11.182079 0.0
2.3508 10.194759 0.0
2.933396 9.080199 0.0
3.666438 7.92922 0.0
6.423905 6.13586 0.0
4.527474 6.857337 0.0
-23.331646 13.504354 0.0
-22.248645 13.457053 0.0
-21.004029 13.47887 0.0
-19.757069 13.509133 0.0
-18.520799 13.541365 0.0
-17.296687 13.562246 0.0
-16.080007 13.573062 0.0
-14.866565 13.577317 0.0
-13.653714 13.578133 0.0
-12.41934 13.569716 0.0
-23.343662 1.929172 0.0
-23.002556 3.047389 0.0
-23.097843 4.455455 0.0
-23.138512 5.761744 0.0
-23.153481 7.050305 0.0
-23.163971 8.33997 0.0
[...]
CELL_DATA 1211
SCALARS pressure float 1
LOOKUP_TABLE default
0.7293795604
0.4130451591
0.5044615087
0.643160647
0.7374826928
0.5860142216
0.2297549433
0.709129842
0.6663432968
0.6506503568
0.4311957274
0.2562705223
0.948832182
0.6229073734
0.3752623542
0.4128727217
0.5735419911
0.6582814053
0.5833927714
0.566893721
0.474334801
0.5857536148
0.7082057571
0.7092758867
0.709300727
0.7093034653
0.8287238783
0.7093034812
0.9410822865
0.6271496286
0.7093005589
0.6908041799
0.7091701929
0.6475081396
0.930219424
0.6926044936
0.4117417987
0.7066714233
0.579876588
0.7085369549
0.9605476665
0.8900761056
0.2274560711
0.7093004062
0.8616190349
0.7091189349
0.5969214362
0.7848973507
1.035740453
0.7484967905
0.6968482645
0.6770203855
0.6813880553
0.6886750545
0.7030867752
0.7409068841
0.6545142582
0.7663041985
0.7041812373
0.6679343399
0.6478602264
0.64721017
0.5215522273
0.4218824015
0.8738382789
0.8357726822
0.8769855463
0.4356829353
0.586504936
0.6529515946
0.5854541779
0.7414331385
0.583815515
0.8906296675
0.5802222274
0.9458253439
0.9290775825
0.6163766702
0.251041395
0.9311762593
0.9309562343
0.9302978137
0.8709163844
0.6667413425
0.8710465099
0.6605730336
0.7351534734
0.8718800445
0.9180710115
0.4951351787
0.6699824002
0.287185326
0.1030750839
0.3595050341
0.8713584583
0.6657688664
0.8732260876
0.3144183661
0.7760975898
0.5618819629
0.3656138871
0.6690931955
0.6477214718
0.6201101657
0.6716271082
0.7750037082
0.6665737559
0.7536329236
0.7516514784
0.7709202699
0.7697981136
0.7679236448
0.6694769436
0.6727030881
0.7685888185
0.7251285178
0.6772580908
0.7505094205
0.7630185908
0.6687828417
0.688014452
0.7115123534
0.8871837026
0.6422581825
0.6719056419
0.6945166669
0.7349670276
0.6710955649
0.5560177344
0.6840066884
0.578714337
0.6108215588
0.3678210962
0.7730317525
0.7653656492
0.3663942827
0.5436520435
0.7400586151
0.7533098659
0.7158642556
0.5871629648
0.5789151188
0.7093010073
0.7093010144
0.7093007005
0.709301023
0.7093034397
0.3780855931
0.7093034708
0.647027424
0.709301017
0.6711905505
0.7152568331
0.5751266853
0.5686730031
0.63534939
0.709307428
0.6721772832
1.047889672
0.5985935997
0.6951559306
0.5703685261
0.632038579
0.689822325
0.7034022656
0.9263389983
0.6909761947
0.4168908791
0.6252341655
0.6283310142
0.7019539024
0.7093034752
0.6273160777
0.6303615485
0.7639883667
0.6371557664
0.7091535205
0.6457608119
0.7093064445
0.6769218032
0.672065127
0.7090310659
0.7092770379
0.7093069657
0.7082580345
0.7007919734
0.70373257
0.7566010547
0.2485782972
0.6469641093
0.6672743518
0.6990940431
0.6590377536
0.6703569327
0.6924485222
0.7093064102
0.6708772643
0.7093013628
0.6704123063
0.2544781917
0.7090004559
0.2130592632
0.401785406
0.6705316362
0.7093069175
0.5883069774
0.6744965148
0.7553566933
0.6255961673
0.3666436454
0.671949211
0.6252721527
0.6380563805
0.7015174266
0.7220453811
0.7006103477
0.7085306774
0.6981771385
0.7196875646
0.6975478404
0.7046386995
0.7138395644
0.7061280127
0.721724382
0.7241388831
0.7337879372
0.7070114017
0.7483612323
0.7092827033
0.7466774082
0.7091105054
0.7463976233
0.7162751624
0.6894050347
0.7094776468
0.680964095
0.7135754135
0.7096397325
0.749794037
0.6753820679
0.7148174289
0.7713320222
0.6731502663
0.6625361896
0.7728844293
0.7536698235
0.715670321
0.7492277772
0.656995825
0.790472378
0.3829187884
0.324896427
0.9305963912
0.9304745114
0.930868749
0.930403617
0.8713505339
0.8712029494
0.6647253921
0.9304626011
0.6610212322
0.6615272487
0.7522671729
0.1990895525
0.6723575666
0.3942012746
0.670437052
0.6488321662
0.6720648743
0.3751970482
0.6705667503
0.7393589505
0.6559713632
0.9208553
0.8752183187
0.6586576862
0.8601887662
0.448997343
0.6233043704
0.6218409919
0.7170667991
0.8711108771
0.6259217989
0.6268072873
0.7675041167
0.6328338972
0.709194746
0.653063586
0.7776140307
0.7204150781
0.671752429
0.7784616495
0.9316086428
0.7397545944
0.9319125261
0.7700344616
0.8754374149
0.7576400945
0.7397891154
0.7586424144
0.9291806193
0.7134553594
0.8637275279
0.7771162003
0.6122637098
0.7765099399
0.6990069865
0.5929407552
0.7782426552
0.5715773285
0.4015842164
0.6699298
0.7392439922
0.8979097247
0.7230140691
0.7615935231
0.632322735
0.5992132739
0.6709437844
0.7409463384
0.6577113596
0.6671434519
0.6700288389
0.6676015695
0.6319725937
0.6664739303
0.6468626372
0.6666104615
0.6235694736
0.6668031651
0.627333353
0.6670249751
0.6732201194
0.6675165378
0.6699621211
0.6484398066
0.6925993935
0.6492616372
0.7020505778
0.7124399
0.7019358406
0.6932124174
0.6516663335
0.7033193798
0.653779867
0.7098471969
0.7081989319
0.7165474037
0.7111252054
0.715403165
0.7089852632
0.6726973753
0.7152761145
0.6868590895
0.7142160837
0.7051236513
0.7110866074
0.7227386162
0.7066251332
0.7357003235
0.6230031653
0.7115184604
0.744876793
0.6248637147
0.6989572557
0.615991118
0.7123426368
0.7603445956
0.635359396
0.6978914441
0.7055523957
0.6938145271
0.6693246877
0.5057207279
0.7019567437
0.6985554963
0.6984272562
0.6803936173
0.7092690954
0.6757008984
0.7093064357
0.7093064408
0.70930639
0.7093074235
0.6275481709
0.6298971186
0.6922988608
0.6700774526
0.6261570455
0.6734644307
0.6993469502
0.6927022791
0.7061627434
0.6993704463
0.6733083215
0.7016441037
0.6281026745
0.6999166931
0.7074322064
0.6208569148
0.7092643095
0.623798291
0.698785834
0.7093074314
0.699508205
0.7093074302
0.6999056763
0.7005187519
0.7064171198
0.7009956537
0.7093081244
0.7075579867
0.7093074838
0.7093079681
0.709301853
0.707622992
0.7093080422
0.668380508
0.6927040112
0.692462949
0.7074025904
0.706106915
0.7020286447
0.625772662
0.7093079658
0.6680897633
0.7093074117
0.7092599253
0.7092879634
0.6688153735
0.6679139634
0.7059222731
0.7093080355
0.6229209153
0.6997726694
0.6250894223
0.698614548
0.6761966712
0.6996422004
0.7041361846
0.7105174881
0.7095383796
0.70114076
0.7051216117
0.7081900231
0.7079498771
0.7106553952
0.7134764298
0.7091041007
0.7087356219
0.7191303755
0.707370636
0.709335309
0.7091593479
0.7215126136
0.7221926102
0.7059029805
0.7060873803
0.7233363786
0.7238087602
0.7040811699
0.709699653
0.7241222454
0.7034411318
0.7096926662
0.7270493096
0.7096858712
0.7291585201
0.7225279014
0.6798416159
0.7398337336
0.6714831177
0.7779740818
0.7777789342
0.7780853193
0.7401750922
0.6203642267
0.7401150811
0.6195148538
0.6191936858
0.6269419951
0.7137663639
0.6993493421
0.6674684116
0.6321661934
0.630597037
0.7060880589
0.7060167295
0.6696717011
0.7094083684
0.6191070385
0.7704971368
0.738257541
0.6271926905
0.7397320393
0.6298621606
0.7001864076
0.7397276255
0.699632435
0.7399868467
0.6996491148
0.6996021636
0.7091616194
0.7018247126
0.7092111349
0.7165706395
0.7172333879
0.7172618089
0.777306496
0.7380454421
0.7117453303
0.7123481309
0.7197694516
0.7135034328
0.6662594842
0.7061918169
0.7102864765
0.6752565339
0.7167841159
0.7163242859
0.7063287484
0.6732900511
0.6732285454
0.7062004041
0.7115866211
0.6278954139
0.7018569096
0.6296137925
0.70028472
0.6812093492
0.6987820747
0.7018887466
0.7000801314
0.6994168354
0.6993024035
0.7017609107
0.6988568605
0.7087460343
0.7018814334
0.6986193394
0.7086810597
0.7017973119
0.7073573635
0.6928212957
0.7086810732
0.708757698
0.6927646247
0.708743886
0.6925595175
0.7082032589
0.7090586433
0.7006637112
0.6963827865
0.7088774985
0.6958537846
0.7036785494
0.6953327301
0.7092696189
0.6956432929
0.6982252182
0.7096563947
0.710699191
0.7025523272
0.7095720658
0.7092892586
0.7101154756
0.7105798218
0.7102349017
0.7143273371
0.7089704983
0.7093011776
0.7085351036
0.7161715181
0.7100286982
0.7190799099
0.7207443202
0.6985784234
0.7209359528
0.7199220094
0.7071119537
0.7059041183
0.7097182469
0.7124070728
0.7090797067
0.681029291
0.6845474944
0.7091647247
0.7070998582
0.707708004
0.7063565762
0.7092662663
0.7093034424
0.7064277724
0.7062725876
0.7093079691
0.6986932238
0.709199085
0.7072719907
0.7088015411
0.7061258467
0.7070185602
0.7093081298
0.7062458189
0.7001329699
0.7093048395
0.7080810054
0.6287548072
0.7051227126
0.7087233394
0.707306282
0.7089762316
0.7061165079
0.7093026599
0.6984363328
0.7093081287
0.7093080852
0.7087805352
0.7058585601
0.7093080853
0.7092920993
0.7093080847
0.7093081048
0.7093079633
0.7090205367
0.7093081304
0.7088103065
0.7093060608
0.7058915911
0.7087456359
0.7092029728
0.7059714725
0.7059439965
0.7087270516
0.7058399729
0.709308101
0.7093056875
0.7086857614
0.7058806538
0.7058342969
0.7091815215
0.7086716414
0.6985140763
0.6991204531
0.7059634264
0.7091611083
0.7087389934
0.7087319139
0.7086470248
0.70943101
0.7093689334
0.7098584779
0.7089898459
0.7096218543
0.7097177783
0.7093111275
0.7095220347
0.7093018274
0.7101961123
0.7103872412
0.7092121811
0.7093182185
0.7092344912
0.7093165531
0.7106924698
0.7106312366
0.7085137724
0.7093548016
0.7079746978
0.7092145856
0.7182883907
0.7164049556
0.7090668566
0.7110181915
0.7064169137
0.7163885325
0.7114713592
0.7062613137
0.7062652153
0.7171845233
0.700081404
0.7092618411
0.7117123525
0.6991439571
0.7095188549
0.7087515817
0.7058065558
0.7093204198
0.7095614639
0.7087245666
0.7059066476
0.7061471925
0.6995394764
0.7086822868
0.7166957994
0.7115713221
0.7058520703
0.7113722678
0.7006060831
0.7094003741
0.7116758098
0.708780209
0.7087830038
0.7091705132
0.7092921842
0.7117403745
0.7091861179
0.7173374123
0.7115277407
0.7094051396
0.7092475125
0.7097598292
0.7074126147
0.7125610311
0.6975594404
0.7090123382
0.6986528275
0.7087049275
0.7066273977
0.7097124594
0.7066216306
0.7096661637
0.70655009
0.7064723976
0.7092274754
0.7088517588
0.700048027
0.6990325671
0.7061544413
0.7092017063
0.7091937214
0.7093417732
0.7085611505
0.709186275
0.7088259935
0.7086890221
0.7091618451
0.7087199624
0.7091721645
0.7087349979
0.7074291438
0.7092098352
0.7074536663
0.7091824544
0.7092860069
0.7074666506
0.7092889684
0.7073733848
0.7092847431
0.7072371373
0.7085970209
0.7074335354
0.7078217694
0.7117156713
0.7088319547
0.7093852156
0.7091263375
0.709358763
0.70927434
0.7093447502
0.7093128512
0.7092741289
0.7092529183
0.7093087276
0.7093072963
0.7094340088
0.7093163309
0.7093157885
0.7093107446
0.7102836293
0.7086643306
0.7092993647
0.7098637851
0.7093127317
0.7101197428
0.7099589853
0.7093686055
0.708669453
0.7076360741
0.7064329498
0.7033429256
0.7086860708
0.7079519698
0.7092885113
0.7091757174
0.7093085005
0.7091924471
0.709308129
0.709185436
0.7093081243
0.7091765059
0.7093074906
0.7092804903
0.7086966158
0.7093049738
0.7091741688
0.7087496322
0.70879982
0.7092052952
0.706311636
0.7090757205
0.7092897447
0.7093078797
0.7091636962
0.7086788316
0.7092883106
0.7093081304
0.7092947936
0.7093055095
0.7091613796
0.7093080814
0.7093081242
0.709307923
0.709308132
0.7092868138
0.7086504942
0.7092083242
0.7091610814
0.7092907077
0.7093049969
0.70930778
0.7093042737
0.7093080837
0.7091647167
0.7093048525
0.7093081006
0.70867657
0.7092886176
0.7093044549
0.7086907355
0.7092880472
0.7092736834
0.7093084404
0.7093352928
0.7093114241
0.7093095156
0.7093410118
0.7093531168
0.7093096742
0.7093082707
0.7093070008
0.7093082106
0.7093222129
0.7093206197
0.7091908173
0.7094082289
0.7097312616
0.709758548
0.7091773756
0.7092090448
0.7092887793
0.7088387633
0.7091599771
0.7093050059
0.7093141649
0.7092908062
0.709173392
0.7093314741
0.7093437169
0.7093046408
0.7093925391
0.7092043951
0.7088506854
0.7093102708
0.7094033708
0.7092954777
0.7097399362
0.7097486795
0.7093136446
0.7092963039
0.7094200884
0.7093052445
0.708707315
0.7092969287
0.7088019751
0.709289703
0.7093077738
0.7092132181
0.7093192279
0.7093065134
0.7093071131
0.7093080826
0.708813159
0.7092935185
0.7092916527
0.7087978138
0.7091617071
0.7093055517
0.7091975894
0.7092844238
0.7092892953
0.7092853313
0.7092059436
0.709283519
0.7092110983
0.709307767
0.7092168742
0.7092857265
0.7087639412
0.7093033624
0.7090011686
0.7093075426
0.709302912
0.7093145346
0.7093074179
0.7093187553
0.7093088137
0.7093081854
0.7093133542
0.7093253209
0.7089333061
0.7093287908
0.7093534365
0.7092096554
0.7093404641
0.7093085621
0.7094798132
0.7094709669
0.7092880527
0.709305666
0.7091650462
0.7092935129
0.7068915062
0.7092258851
0.7087442633
0.709118227
0.7092441495
0.7093080851
0.7093029523
0.7093080778
0.7093090678
0.7093081075
0.7092916584
0.7093078522
0.7093057707
0.7093081319
0.7093081303
0.7093052228
0.7092883344
0.7093081319
0.7093078356
0.7093047387
0.7092950131
0.7093052766
0.7093076153
0.7092913345
0.7093081046
0.7093050938
0.7093081319
0.7092888371
0.7093081319
0.7093078618
0.7093081107
0.7093081319
0.7093081089
0.7093080894
0.7093076435
0.7093076734
0.7093053856
0.7093046226
0.7093046589
0.7093081281
0.7093081251
0.7093046637
0.7093077427
0.7093081281
0.7092908594
0.7093045204
0.7092914283
0.7091690856
0.7093077313
0.7092847775
0.7093080038
0.7093073173
0.7093080331
0.7093074497
0.7093092156
0.7093083269
0.7093575758
0.7093222829
0.709305845
0.7093103425
0.7093102775
0.7093215877
0.7093064719
0.7093104121
0.7093078353
0.7093048005
0.7093046325
0.7093081182
0.7093049147
0.7093078124
0.7093081316
0.7093077898
0.7091579373
0.7085546706
0.7093101573
0.7093063496
0.7093064127
0.7093081281
0.709320825
0.7093078828
0.7093083526
0.709320909
0.7093083947
0.709308162
0.7093085876
0.7093348061
0.709308631
0.709296529
0.7092971028
0.7093083272
0.7093079764
0.7093081202
0.7092961987
0.7093078762
0.7093057004
0.7093065355
0.7093036797
0.7093080774
0.709307806
0.7093080686
0.7093051113
0.7093080817
0.7093080604
0.7093081316
0.7093080814
0.7093081264
0.7093076843
0.7093055261
0.7093098356
0.7093081768
0.709311207
0.7093077182
0.7093090883
0.7093064581
0.7093080037
0.7093127071
0.709308226
0.7093118716
0.7093082252
0.7093088297
0.7092906566
0.7093080273
0.7093080947
0.7092957314
0.7093073141
0.7093082167
0.7093053263
0.7093081263
0.7093080891
0.709308132
0.709308132
0.709308132
0.7093081227
0.7093081306
0.7093077068
0.709308132
0.7093080518
0.7093081317
0.7093081298
0.7093080747
0.7093081317
0.7093077644
0.7093081315
0.709308132
0.7093081289
0.7093081321
0.7093074352
0.709304523
0.7093080915
0.7093077334
0.7093077758
0.7093080836
0.7093077699
0.7093081316
0.7093077641
0.7093080993
0.7093081278
0.7093080998
0.7093083564
0.709308478
0.7093080911
0.7093081591
0.7093083371
0.7093080899
0.7093083547
0.7093080866
0.7093081308
0.7093080837
0.7093086968
0.7093081317
0.7093077761
0.7093081332
0.7093081603
0.7093079308
0.7093081319
0.7093081156
0.7093081645
0.7093081319
0.7093081318
0.7093081347
0.7093080181
0.7093081316
0.7093081316
0.7093081376
0.709307991
0.7093081322
0.7093081105
0.7093081329
0.7093081277
0.7093078598
0.709308079
0.7093081316
0.709308132
0.7093080813
0.7093081264
0.7093081315
0.7093082595
0.7093081024
0.7093081949
0.7093079787
0.7093081992
0.7093081321
0.7093081291
0.7093082199
0.7093078105
0.7093081327
0.709307894
0.7093081372
0.7093013165
0.7093081301
0.7093081043
0.7093070588
0.7093081286
0.7093081316
0.7093081312
0.7093081321
0.709308132
0.7093081271
0.7093081296
0.7093081319
0.7093081321
0.7093081297
0.709308132
0.7093081321
0.709308128
0.709308132
0.7093081275
0.709308132
0.7093081319
0.7093081321
0.7093081287
0.7093081321
0.7093081321
0.7093081284
0.7093081281
0.709308132
0.7093081315
0.7093081321
0.7093081304
0.709308111
0.7093081345
0.7093081321
0.7093081324
0.7093081322
0.7093081321
0.7093081405
0.709308132
0.7093081308
0.709308132
0.7093081321
0.7093081317
0.709308008
0.7093081303
0.7093081411
0.7093081321
0.7093081282
0.7093081318
0.7093081321
0.7093081186
0.7093081291
0.7093081321
0.7093081321
0.709308132
0.709308132
0.7093081321
0.709308132
0.709308132
0.7093081321
0.709308132
0.709308132
0.709308132
0.709308132
0.7093081321
0.7093081321
0.709308132
0.709308132
0.7093081329
0.709308132
0.709308132
0.709308132
0.7093081321
0.709308132
0.709308132
0.709308132
0.709308132
0.7093081321
0.7093081321
0.7093081321
0.7093081321
0.7093081321
SCALARS mach float 1
LOOKUP_TABLE default
0.09358856978
1.111922727
0.3176926254
1.618126779
0.09014030401
0.351799083
0.3901085853
0.1000861532
1.146781264
1.172624004
0.3034809959
0.2835862881
1.340525021
1.230792231
0.07202383852
0.2737654761
1.449387624
1.20904402
1.467383249
1.020538561
0.2103891004
0.3489408074
0.09951561766
0.1000975154
0.1001071372
0.1001047149
1.397629138
0.1001047273
1.253570956
0.1403653288
0.1001047122
0.0905818055
0.114483196
0.0459009997
1.317666953
0.09328884512
0.3002028646
0.09963803495
0.350052802
0.09650574733
1.288680681
1.396917631
0.3994427513
0.1001047321
1.398589759
0.1000865781
0.3394348584
1.139059129
1.334708974
0.06977721644
0.1012596388
0.09118759467
0.09004915653
0.09377177333
0.09757218904
0.08053658048
0.06198561383
0.06334923771
0.09563597404
0.06360658459
0.04713763683
0.04487440735
1.503340808
0.300812883
0.2450305248
1.179967244
1.307314355
0.287285231
0.3498569798
1.147149328
0.3523226979
0.07791840782
0.3529790705
1.458905615
0.3512418306
1.322075414
1.309823912
0.2896581154
0.3062148505
0.2914337364
0.2885924136
0.2881598967
0.2426939168
1.239482493
0.2428141006
1.229069697
0.2470655167
0.243405698
0.3197196592
2.030114542
0.1080167186
0.4854573086
1.137002208
0.05076248928
0.2430068433
1.245312918
0.2445647864
0.1232983122
1.157283564
0.2163963914
0.1046171004
0.1079767647
0.04363535539
0.1295483626
0.06871761267
0.05411148172
0.05977839958
0.06549837091
0.06681742014
0.05662671463
0.05795183845
0.05951237776
0.06575771423
0.07136011551
0.07107671995
0.08653852663
0.09531461106
0.06756092132
0.06596181772
0.1082761824
0.09164767048
0.1029920027
1.40849456
1.386492035
0.1057777266
1.197624814
0.08782001558
0.1074725766
0.3673189487
0.1870695902
0.3560733442
0.0975959909
0.3236265213
0.05499778015
0.06396696664
0.06086499051
0.124539904
0.07597342885
0.04161191396
1.134433801
0.3363942214
0.347130382
0.1001072656
0.1001072613
0.1001071738
0.1001072491
0.1001047423
0.0746432532
0.1001047379
0.0426463374
0.1001072585
0.1084433032
1.418502183
0.3534168489
0.3585624982
0.058572943
0.1001006734
0.107930791
1.31601794
0.1194496981
0.09667101968
0.3647739268
0.1301896669
0.08968500312
0.09880867808
1.382101473
1.1892687
0.2895980017
0.1324702211
0.1321460798
0.09317365632
0.1001047335
0.1274476599
0.1390182963
1.181909885
0.1265679257
0.1001015583
0.120997242
0.1001016831
0.1062247691
0.1082352619
0.1000733315
0.100097464
0.1001007381
0.09953067705
0.1000134086
0.09890882575
1.41371804
0.2905464692
0.04405954994
0.061835769
0.1007056318
1.210651374
0.1078956152
0.08413068917
0.1001016629
0.1094085817
0.1001010848
0.1070945819
0.2550476223
0.1000748188
0.4451765015
0.3020240336
0.1093752144
0.1001007427
1.361589128
0.1060538102
1.11419584
0.13457956
0.09859762375
0.1072687306
0.1381683889
0.1282557165
0.1004766394
0.09924486402
0.1016721801
0.1003408819
0.09533421217
0.09313807027
0.0963511033
0.09577045604
0.09505372321
0.09863269257
0.09470409348
0.09261002475
0.08714082204
0.09900975473
0.08307780856
0.1000860648
0.0757373385
0.1000395468
0.07232745438
0.09627875702
0.09533447398
0.1003579839
0.08675881008
0.09691502509
0.09981986386
0.06847095155
0.07912730087
0.09540651329
0.05608989077
0.07394340726
0.07736331436
0.05508656864
0.06496153372
0.09450841756
0.0681249916
0.06824613978
1.065737926
0.1025327522
0.1448170416
0.2883856553
0.2883017271
0.2885636249
0.2882435096
0.2430380674
0.2429353039
1.256124966
0.2882916524
1.282304887
1.2076266
0.07934226403
0.5156783563
0.1065151777
0.2929405889
0.1078236617
1.282665167
0.1073047248
0.07270687716
0.1070440306
0.08224616576
1.233313291
0.3174432048
0.256887547
1.214380621
1.324101499
0.2937498597
0.1277584064
0.1278197872
0.1077156847
0.2428626347
0.126740775
0.1403706005
1.250265284
0.1313345256
0.1000953257
0.137914572
0.1643938271
0.1557296747
0.1084903788
0.1654798982
0.2890518384
0.1295265017
0.2920963594
0.1692141277
0.2579124064
0.07194545012
0.06995376961
0.06110493254
1.621337202
0.09753311653
1.380679511
0.1639523881
0.163051925
0.1634290429
0.1007453399
0.34545465
0.1652695314
0.3583560536
0.2974801603
0.1087903806
0.1290493447
1.344676293
0.1543226791
1.160303016
0.1299028405
0.3413334126
0.1078525769
0.2346239304
0.1335857997
0.0646935732
0.1083131209
0.06059986607
0.1302356147
0.10244813
0.04348294939
0.06022193275
0.1445157229
0.06065718897
0.1349969451
0.06118608743