# vtk DataFile Version 3.0
FirstorderEuler solution
ASCII
DATASET UNSTRUCTURED_GRID
POINTS 673 float
26.342241 -13.28699 0.0
9.342241 -13.28699 0.0
25.127955 -13.28699 0.0
23.91367 -13.28699 0.0
22.699384 -13.28699 0.0
21.485098 -13.28699 0.0
20.270812 -13.28699 0.0
19.056527 -13.28699 0.0
17.842241 -13.28699 0.0
16.627955 -13.28699 0.0
15.41367 -13.28699 0.0
14.199384 -13.28699 0.0
12.985098 -13.28699 0.0
11.770812 -13.28699 0.0
10.556527 -13.28699 0.0
26.342241 4.71301 0.0
26.342241 3.427296 0.0
26.342241 2.141581 0.0
26.342241 0.855867 0.0
26.342241 -0.429847 0.0
26.342241 -1.715561 0.0
26.342241 -3.001276 0.0
26.342241 -4.28699 0.0
26.342241 -5.572704 0.0
26.342241 -6.858419 0.0
26.342241 -8.144133 0.0
26.342241 -9.429847 0.0
26.342241 -10.715561 0.0
26.342241 -12.001276 0.0
9.342241 4.71301 0.0
10.556527 4.71301 0.0
11.770812 4.71301 0.0
12.985098 4.71301 0.0
14.199384 4.71301 0.0
15.41367 4.71301 0.0
16.627955 4.71301 0.0
17.842241 4.71301 0.0
19.056527 4.71301 0.0
20.270812 4.71301 0.0
21.485098 4.71301 0.0
22.699384 4.71301 0.0
23.91367 4.71301 0.0
25.127955 4.71301 0.0
-9.461749 16.762785 0.0
-8.851018 15.727887 0.0
-7.643912 15.833538 0.0
-6.56175 16.497727 0.0
-5.421878 17.057547 0.0
-4.22328 17.474446 0.0
-2.97506 17.703168 0.0
-1.706546 17.717887 0.0
-0.454967 17.510251 0.0
0.738528 17.081097 0.0
1.813986 16.410046 0.0
2.738939 15.541466 0.0
3.54016 14.556472 0.0
4.262391 13.511657 0.0
4.943851 12.439681 0.0
5.599125 11.351471 0.0
6.240279 10.254863 0.0
6.877149 9.155758 0.0
7.509236 8.053899 0.0
8.132212 6.946866 0.0
8.743389 5.833275 0.0
-26.461749 16.762785 0.0
-25.247463 16.762785 0.0
-24.033178 16.762785 0.0
-22.818892 16.762785 0.0
-21.604606 16.762785 0.0
-20.39032 16.762785 0.0
-19.176035 16.762785 0.0
-17.961749 16.762785 0.0
-16.747463 16.762785 0.0
-15.533178 16.762785 0.0
-14.318892 16.762785 0.0
-13.104606 16.762785 0.0
-11.89032 16.762785 0.0
-10.676035 16.762785 0.0
-26.461749 -1.237215 0.0
-26.461749 0.048499 0.0
-26.461749 1.334214 0.0
-26.461749 2.619928 0.0
-26.461749 3.905642 0.0
-26.461749 5.191356 0.0
-26.461749 6.477071 0.0
-26.461749 7.762785 0.0
-26.461749 9.048499 0.0
-26.461749 10.334214 0.0
-26.461749 11.619928 0.0
-26.461749 12.905642 0.0
-26.461749 14.191356 0.0
-26.461749 15.477071 0.0
-9.461749 -1.237215 0.0
-10.676035 -1.237215 0.0
-11.89032 -1.237215 0.0
-13.104606 -1.237215 0.0
-14.318892 -1.237215 0.0
-15.533178 -1.237215 0.0
-16.747463 -1.237215 0.0
-17.961749 -1.237215 0.0
-19.176035 -1.237215 0.0
-20.39032 -1.237215 0.0
-21.604606 -1.237215 0.0
-22.818892 -1.237215 0.0
-24.033178 -1.237215 0.0
-25.247463 -1.237215 0.0
9.057562 -12.04808 0.0
8.752682 -10.813986 0.0
8.427982 -9.584959 0.0
8.084412 -8.36107 0.0
7.72396 -7.142045 0.0
7.348469 -5.927565 0.0
6.956232 -4.718396 0.0
6.542915 -3.516277 0.0
6.104204 -2.323199 0.0
5.635914 -1.141429 0.0
5.131587 0.025386 0.0
4.580287 1.170706 0.0
3.970726 2.286035 0.0
3.285322 3.35621 0.0
2.500708 4.355551 0.0
1.591849 5.24254 0.0
0.539945 5.952305 0.0
-0.6477 6.394399 0.0
-1.911401 6.481296 0.0
-3.151754 6.218126 0.0
-4.311916 5.702591 0.0
-5.375063 5.007718 0.0
-6.338326 4.179341 0.0
-7.202162 3.247593 0.0
-7.962143 2.229297 0.0
-8.611319 1.137018 0.0
-9.155683 -0.011337 0.0
10.044371 -12.43646 0.0
8.024035 4.75629 0.0
-10.026781 15.712465 0.0
-10.302207 -0.12462 0.0
24.710163 -12.117687 0.0
23.387221 -12.125543 0.0
22.117317 -12.170608 0.0
20.880961 -12.194029 0.0
19.654245 -12.208596 0.0
18.433619 -12.217683 0.0
17.216868 -12.222535 0.0
16.001968 -12.224578 0.0
14.787139 -12.223512 0.0
13.560909 -12.222768 0.0
12.321164 -12.237015 0.0
11.082715 -12.284774 0.0
25.348686 2.58488 0.0
25.254061 1.506492 0.0
25.23733 0.239748 0.0
25.232954 -1.045487 0.0
25.237431 -2.334798 0.0
25.239418 -3.62226 0.0
25.239917 -4.908701 0.0
25.241196 -6.194431 0.0
25.243627 -7.484297 0.0
25.249476 -8.779399 0.0
25.264265 -10.06036 0.0
25.358205 -11.148698 0.0
9.947555 3.636152 0.0
11.172442 3.639903 0.0
12.392517 3.64298 0.0
13.610558 3.646116 0.0
14.826653 3.648657 0.0
16.041421 3.650269 0.0
17.255549 3.651029 0.0
18.469503 3.651203 0.0
19.681683 3.651235 0.0
20.890888 3.644962 0.0
22.112344 3.621685 0.0
23.377226 3.569633 0.0
24.703001 3.551931 0.0
-8.032707 14.833627 0.0
-6.80688 15.195282 0.0
-5.615704 15.68612 0.0
-4.423453 16.141555 0.0
-3.230873 16.512181 0.0
-2.24284 16.84127 0.0
-1.217096 16.630781 0.0
-0.17984 16.518806 0.0
0.657278 15.818978 0.0
1.888099 14.825833 0.0
2.810961 13.504387 0.0
3.596001 12.387648 0.0
4.303569 11.308179 0.0
4.964312 10.228941 0.0
5.617594 9.138982 0.0
6.288627 8.055317 0.0
6.934845 7.00807 0.0
7.468861 5.924857 0.0
-24.82978 15.593554 0.0
-23.506933 15.601482 0.0
-22.237113 15.646625 0.0
-21.00083 15.670117 0.0
-19.77418 15.684743 0.0
-18.553619 15.693884 0.0
-17.336936 15.69881 0.0
-16.122119 15.700969 0.0
-14.907934 15.701647 0.0
-13.693997 15.701649 0.0
-12.479078 15.701821 0.0
-11.252843 15.703687 0.0
-25.468223 0.890779 0.0
-25.376076 1.969024 0.0
-25.363068 3.2356 0.0
-25.35795 4.52079 0.0
-25.359335 5.810131 0.0
-25.359844 7.097604 0.0
-25.359856 8.384046 0.0
-25.361002 9.669794 0.0
-25.363394 10.959778 0.0
-25.369212 12.25507 0.0
-25.383956 13.536167 0.0
-25.477835 14.624541 0.0
-11.516024 -0.240966 0.0
-12.528448 -0.450013 0.0
-13.56172 -0.247353 0.0
-14.820883 -0.166973 0.0
-16.087538 -0.147823 0.0
-17.337414 -0.152171 0.0
-18.571507 -0.161293 0.0
-19.796359 -0.168548 0.0
-21.01749 -0.16661 0.0
-22.244219 -0.145359 0.0
-23.503503 -0.093899 0.0
-24.823637 -0.076226 0.0
10.180579 -11.260952 0.0
9.704638 -9.912611 0.0
9.321571 -8.687546 0.0
8.961518 -7.468407 0.0
8.59135 -6.243683 0.0
8.203526 -5.018623 0.0
7.79489 -3.797109 0.0
7.361493 -2.580952 0.0
6.894219 -1.371175 0.0
6.398867 -0.169651 0.0
5.895424 1.046178 0.0
5.295683 2.262425 0.0
4.553588 3.417786 0.0
3.725006 4.48659 0.0
2.816662 5.476602 0.0
1.783433 6.387504 0.0
0.53429 7.104794 0.0
-0.988348 7.644247 0.0
-2.576953 7.390769 0.0
-3.948764 7.00645 0.0
-5.225398 6.382082 0.0
-6.365425 5.547599 0.0
-7.396332 4.615176 0.0
-8.363778 3.596202 0.0
-9.394354 2.456795 0.0
-9.896265 1.065273 0.0
8.697126 3.621715 0.0
-9.295433 14.684828 0.0
24.122958 -10.849149 0.0
22.748995 -11.03736 0.0
21.50391 -11.084838 0.0
20.262841 -11.114977 0.0
19.030374 -11.136544 0.0
17.806837 -11.150832 0.0
16.58923 -11.158667 0.0
15.370935 -11.153407 0.0
14.136729 -11.138141 0.0
12.884662 -11.146492 0.0
24.104367 2.31138 0.0
24.122248 0.930083 0.0
24.098001 -0.368214 0.0
24.125347 -1.671577 0.0
24.135605 -2.958512 0.0
24.138118 -4.243847 0.0
24.141846 -5.529688 0.0
24.144396 -6.820245 0.0
24.12518 -8.132699 0.0
24.148268 -9.445568 0.0
10.588584 2.562058 0.0
11.803585 2.566969 0.0
13.020944 2.573875 0.0
14.239256 2.58007 0.0
15.455703 2.584692 0.0
16.670364 2.587459 0.0
17.88412 2.588623 0.0
19.09151 2.588165 0.0
20.291376 2.581094 0.0
21.503084 2.558929 0.0
22.730143 2.512389 0.0
-7.127147 13.957769 0.0
-5.865258 14.380616 0.0
-4.646903 14.849591 0.0
-3.446051 15.29238 0.0
-2.100241 15.660575 0.0
-0.640691 15.56657 0.0
0.302087 14.5148 0.0
1.327377 13.419927 0.0
2.213715 12.312508 0.0
2.979579 11.254923 0.0
3.651393 10.194324 0.0
4.314149 9.100095 0.0
5.03419 8.010091 0.0
5.772518 6.983927 0.0
6.530013 4.906361 0.0
-24.242767 14.325059 0.0
-22.868961 14.513447 0.0
-21.624019 14.561123 0.0
-20.383098 14.591444 0.0
-19.150779 14.613153 0.0
-17.927388 14.627583 0.0
-16.70993 14.635614 0.0
-15.495291 14.639109 0.0
-14.281668 14.640045 0.0
-13.067508 14.640054 0.0
-11.833376 14.637994 0.0
-24.239021 1.163934 0.0
-24.26505 2.534851 0.0
-24.22886 3.824381 0.0
-24.244708 5.134206 0.0
-24.254858 6.428764 0.0
-24.257935 7.717326 0.0
-24.261843 9.004243 0.0
-24.264405 10.295342 0.0
-24.245157 11.608245 0.0
-24.26818 12.921385 0.0
-11.156127 0.860215 0.0
-12.536218 0.642573 0.0
-13.982188 0.868184 0.0
-15.337235 0.945944 0.0
-16.653572 0.954661 0.0
-17.933644 0.937136 0.0
-19.194279 0.919723 0.0
-20.444255 0.907839 0.0
-21.671674 0.908344 0.0
-22.886602 0.952618 0.0
10.971454 -10.108003 0.0
10.52933 -8.984014 0.0
10.191208 -7.804032 0.0
9.836783 -6.577638 0.0
9.459661 -5.339594 0.0
9.059032 -4.100444 0.0
8.633292 -2.859972 0.0
8.161705 -1.619764 0.0
7.644628 -0.404507 0.0
7.152267 0.784702 0.0
6.807498 2.16564 0.0
5.934603 3.49272 0.0
5.047148 4.638538 0.0
4.117855 5.670407 0.0
3.160555 6.694295 0.0
2.022563 7.833861 0.0
0.460081 8.425001 0.0
-0.789374 9.088035 0.0
-2.102153 8.640033 0.0
-3.48601 8.306699 0.0
-5.032501 7.953759 0.0
-6.342098 6.972412 0.0
-7.487659 6.054022 0.0
-8.607983 5.072106 0.0
-9.661377 4.008217 0.0
7.357412 3.572901 0.0
9.382032 2.550362 0.0
-10.565806 14.640962 0.0
-8.449117 13.64512 0.0
23.211622 -10.028335 0.0
22.128437 -9.980788 0.0
20.883594 -10.002262 0.0
19.636393 -10.032199 0.0
18.399883 -10.06415 0.0
17.175542 -10.084753 0.0
15.956097 -10.08044 0.0
14.72494 -10.047777 0.0
11.607615 -11.18571 0.0
13.451957 -10.014854 0.0
23.183214 1.51898 0.0
22.865147 0.34354 0.0
23.017408 -1.028848 0.0
23.035541 -2.297111 0.0
23.038667 -3.577868 0.0
23.045149 -4.865976 0.0
23.056526 -6.159191 0.0
23.049909 -7.443899 0.0
22.894749 -8.833572 0.0
11.241145 1.50261 0.0
12.439432 1.512187 0.0
13.651293 1.514177 0.0
14.869689 1.517422 0.0
16.086331 1.521649 0.0
17.303544 1.518502 0.0
18.511609 1.512859 0.0
19.703633 1.50962 0.0
20.9017 1.495885 0.0
22.115225 1.472822 0.0
-6.140512 13.063541 0.0
-4.873964 13.558064 0.0
-3.662233 14.064335 0.0
-2.619209 14.531492 0.0
-1.306526 14.232247 0.0
-0.107234 13.181453 0.0
0.839923 12.168657 0.0
1.669264 11.182079 0.0
2.3508 10.194759 0.0
2.933396 9.080199 0.0
3.666438 7.92922 0.0
6.423905 6.13586 0.0
4.527474 6.857337 0.0
-23.331646 13.504354 0.0
-22.248645 13.457053 0.0
-21.004029 13.47887 0.0
-19.757069 13.509133 0.0
-18.520799 13.541365 0.0
-17.296687 13.562246 0.0
-16.080007 13.573062 0.0
-14.866565 13.577317 0.0
-13.653714 13.578133 0.0
-12.41934 13.569716 0.0
-23.343662 1.929172 0.0
-23.002556 3.047389 0.0
-23.097843 4.455455 0.0
-23.138512 5.761744 0.0
-23.153481 7.050305 0.0
-23.163971 8.33997 0.0
[...]
CELL_DATA 1211
SCALARS pressure float 1
LOOKUP_TABLE default
0.7128963678
0.7129064225
0.6831132482
0.711678737
0.7231132233
0.679760925
0.6686254419
0.7093073004
0.7054857091
0.7046570055
0.6759525625
0.6694454858
0.7169161688
0.7050783695
0.6737392452
0.6733164154
0.7057193428
0.7053142357
0.7082996951
0.7181073023
0.6799214188
0.6801155496
0.7093041897
0.7093048568
0.7093048685
0.7093073368
0.7156620106
0.7093073333
0.7150931462
0.7044221946
0.7093073275
0.7089530158
0.7127359552
0.679943831
0.7133460837
0.7065061085
0.67428207
0.7092741293
0.6794893954
0.7088732562
0.7166709402
0.7164758901
0.6680474886
0.7093073358
0.7170291108
0.7093073071
0.6817234673
0.7117364902
0.8035821728
0.7159770231
0.7069533247
0.6926309226
0.6967410699
0.7001632345
0.7090152812
0.7142407769
0.6829332262
0.7348545326
0.7092494634
0.7019725399
0.6800794723
0.6798394241
0.7046652663
0.6929226865
0.7386243499
0.7143551819
0.7153834073
0.6760706007
0.6802472565
0.704597881
0.679479735
0.7148795871
0.6793315361
0.715475211
0.6787319522
0.7225554008
0.816375727
0.6970142533
0.6691917917
0.816602658
0.8154365448
0.8150093447
0.7378893692
0.7054184137
0.7379381112
0.7052987715
0.7222304104
0.7381129346
0.8247953536
0.7115493191
0.7086530294
0.6639608807
0.6648659867
0.6733347924
0.7379922662
0.7054339699
0.7384933333
0.6714646058
0.7108471515
0.649678829
0.6719926087
0.7086304186
0.680797116
0.7036789911
0.7028143171
0.7405673511
0.7017652426
0.7172546156
0.7167115371
0.7378491089
0.7372459279
0.7361503753
0.7023184669
0.7029551867
0.7363725378
0.7100776085
0.7099816201
0.7164412591
0.7334229718
0.7086227861
0.7053666921
0.7097265304
0.7171555897
0.706292872
0.7086569293
0.7096217648
0.7138598676
0.708681891
0.6707262648
0.7203003129
0.6793155234
0.6975086448
0.6727190337
0.7392406443
0.7376598031
0.6732332188
0.7198442179
0.7143013434
0.7364803713
0.7088147739
0.6832690148
0.6822014401
0.7093048473
0.7093048506
0.709304841
0.7093048572
0.7093073301
0.6734316654
0.7093073308
0.6798026354
0.709304852
0.7086616727
0.7115862166
0.6793478173
0.6791457994
0.6829942611
0.7093081236
0.7086473036
0.718076265
0.7015885272
0.7092302416
0.6727708409
0.7038853707
0.7089454568
0.7092890588
0.7176862362
0.7066082109
0.6741552172
0.7034220733
0.703730944
0.7092171991
0.7093073318
0.7035280891
0.7040243292
0.7106594225
0.7044892498
0.7093081307
0.7052534339
0.7093080509
0.7088069097
0.7086911227
0.7093080312
0.7093048253
0.7093081237
0.7093041724
0.7092806527
0.7092895289
0.7047399625
0.6684134811
0.6797486725
0.7018907344
0.7092731817
0.7051901273
0.7086529982
0.7084770675
0.7093080517
0.7086520272
0.7093080534
0.7086513422
0.6675942971
0.7093080318
0.6679443623
0.6741262298
0.7086522538
0.7093081239
0.7065010895
0.7087753596
0.7103797581
0.7032916137
0.6734763764
0.7086981329
0.7042509636
0.7048022801
0.7063036159
0.7116366767
0.7078025037
0.7092992077
0.7074269445
0.7097483655
0.7039412279
0.7084366409
0.7101351362
0.7092686539
0.715017037
0.7121964233
0.7138388007
0.709280868
0.7266643833
0.7093081303
0.7152091374
0.7093080438
0.7154532306
0.7096524377
0.7057077181
0.7093109042
0.7041041938
0.7093523224
0.7093082664
0.7162803635
0.7030748632
0.7093716666
0.7382593315
0.7028368313
0.6858565335
0.7392795437
0.7172734183
0.7093842991
0.7164813153
0.6834331785
0.7129002634
0.6745168118
0.6729941356
0.8152589526
0.8151652116
0.8154560355
0.8151203245
0.7380097478
0.7379829265
0.7056853489
0.8151631432
0.7060658688
0.7058134886
0.729818169
0.6678492026
0.7086910068
0.6735490422
0.7086643859
0.6987061886
0.7087091932
0.6729414539
0.7086416393
0.7146288562
0.7039138758
0.8239116573
0.7425924511
0.7054833178
0.7165384922
0.6750595946
0.7039074142
0.7038737352
0.7093266378
0.7379562083
0.7034063472
0.7038839991
0.7104335039
0.7041104981
0.7093081311
0.7050566877
0.712567732
0.7104655728
0.7086959497
0.712636549
0.8159447528
0.7096642403
0.817268083
0.7128442491
0.7428666201
0.7321464765
0.7148050502
0.731473329
0.720432391
0.7093576065
0.7163425317
0.7125366534
0.7016705438
0.7124997985
0.7092726832
0.680191558
0.7126295496
0.679539402
0.6738956922
0.7086511783
0.70965703
0.7169761417
0.7104739233
0.7114363727
0.7039337683
0.683060053
0.7086641555
0.7222236229
0.7052324469
0.7029649434
0.7086595735
0.7020352782
0.7037983172
0.708558203
0.6796797637
0.7017770447
0.7035366291
0.7018145715
0.7034625449
0.7018506927
0.7067186097
0.7019200724
0.7086531451
0.6801840634
0.7084780919
0.6805105155
0.7092185081
0.7093504924
0.7092163425
0.7085064096
0.6819411004
0.7092369601
0.6829813863
0.7093084123
0.7093052376
0.7093979489
0.70931267
0.7093805092
0.7093079485
0.6910290822
0.7093787368
0.6981748803
0.7093610413
0.7073675585
0.709330124
0.716029475
0.7092738387
0.7221987445
0.7033881645
0.709333984
0.7263127138
0.7032804232
0.7092729236
0.701937488
0.7093433628
0.733080698
0.7037929609
0.7132775199
0.709305739
0.7095430714
0.7085603488
0.6898249956
0.7092160445
0.7089121962
0.7092715536
0.7088463284
0.7093081235
0.708738042
0.7093080503
0.7093080506
0.7093080502
0.7093081236
0.7035956619
0.7036984003
0.7084608894
0.7086263415
0.7035612109
0.7086759837
0.7092737983
0.7086258378
0.7093062824
0.7092730945
0.7086752691
0.7092123107
0.7036637332
0.7092790131
0.7093072498
0.7037804622
0.7093081236
0.7034190875
0.7092721063
0.7093081237
0.7092747636
0.7093081236
0.7092764058
0.7092783135
0.7093063964
0.7092806244
0.7093081321
0.7093072186
0.7093081317
0.7093081316
0.7093080515
0.7093073082
0.709308132
0.7086420385
0.7084832759
0.7084702688
0.7093032991
0.7093062097
0.7092181975
0.7033171846
0.7093081317
0.7086225866
0.7093081317
0.7093081314
0.709308132
0.7086168425
0.7086189694
0.7093061617
0.709308132
0.7034383441
0.7092778236
0.7041361934
0.7092718683
0.7088057565
0.7092757785
0.7090293473
0.709322824
0.7093082283
0.7088876769
0.7091079247
0.7092936762
0.7092211014
0.7093899325
0.7093556701
0.7093080422
0.7093067317
0.7098094943
0.7092860531
0.7093081371
0.7093080641
0.7098296317
0.7098993148
0.7092676618
0.7091572253
0.7099706524
0.7100018076
0.7092425796
0.7093082999
0.7100191102
0.70923501
0.7093082976
0.7102039586
0.7093083165
0.710357664
0.7099438266
0.70882427
0.7096656732
0.7087157035
0.7125902149
0.7125776746
0.7125959478
0.7096713451
0.7037432814
0.7096705217
0.7036554735
0.7036066277
0.7034713335
0.709360255
0.7092743384
0.7086178526
0.704003152
0.7035130454
0.7093062344
0.7093061754
0.7086424606
0.7093081691
0.7036060264
0.7128223981
0.7096734913
0.7035853309
0.7096653094
0.703977678
0.7092779399
0.7096645907
0.7092756809
0.709668557
0.7092766087
0.7092773091
0.7093081308
0.7092797738
0.7093081313
0.7093298328
0.7093270571
0.7093272055
0.7125436476
0.7096698866
0.7093091667
0.7093376262
0.7098491412
0.7093551178
0.7085483414
0.7093063166
0.7093104304
0.7087218815
0.7093258234
0.7093246988
0.7093064069
0.7086992086
0.7086778409
0.7093062934
0.7093090877
0.7036733395
0.7092771596
0.7038972464
0.7092771285
0.7088079231
0.7092718729
0.7092220362
0.709275285
0.7092734861
0.7092743371
0.7092141884
0.7092731782
0.7093080867
0.7092160439
0.7092728757
0.7093080812
0.7092828191
0.7093031541
0.7084887777
0.7093078473
0.7093078894
0.7084837778
0.7093078821
0.7084671898
0.7093054229
0.7093081139
0.7091626044
0.7086999188
0.7093079849
0.7086604094
0.7092406149
0.7086103024
0.7093081058
0.7086043874
0.7087436937
0.7093082872
0.7093115299
0.7089804249
0.7093082323
0.7093081308
0.7093099357
0.7093111472
0.7093516121
0.7095611566
0.7093073688
0.709308132
0.7093061827
0.7096368297
0.7093098171
0.7097859154
0.7098663084
0.7092717632
0.7098597395
0.7097807912
0.709348239
0.7093061275
0.7093098816
0.7096160308
0.709308725
0.7088303351
0.7092332297
0.7093081308
0.709307858
0.7092915999
0.7093063741
0.7093081314
0.709308132
0.7093064561
0.7093063686
0.7093081317
0.7092722591
0.7093081311
0.7093028856
0.7093080917
0.709306198
0.7093024919
0.7093081321
0.7093062739
0.7092761977
0.7093081321
0.7093078346
0.7035475185
0.7093041192
0.7093080833
0.7093071249
0.7093081124
0.7093062678
0.709308132
0.7092718658
0.7093081321
0.709308132
0.7093080902
0.7093061216
0.709308132
0.709308132
0.709308132
0.7093081321
0.7093081316
0.7093081145
0.7093081321
0.7093080919
0.7093081321
0.7093061608
0.7093078829
0.7093081255
0.7093061735
0.7093061606
0.7093080842
0.7093061293
0.7093081321
0.7093081321
0.7093080818
0.7093061213
0.7093061116
0.709308131
0.7093080813
0.709272053
0.7092736705
0.7093061823
0.7093081308
0.7093080869
0.7093080857
0.7093064075
0.7093081847
0.7093081595
0.7093094444
0.7093072791
0.7093089076
0.7093090181
0.7093081322
0.7093082119
0.709308132
0.7093099895
0.7093105124
0.7093080924
0.7093081321
0.7093081034
0.7093081321
0.7093115029
0.7093113339
0.7093062299
0.709308135
0.7093046974
0.7093080801
0.709429411
0.7093998086
0.709308003
0.7093125028
0.709306342
0.7093247915
0.7093090287
0.7093064405
0.7093063945
0.7093269819
0.7092772765
0.7093081315
0.7093091517
0.7092734341
0.7093082144
0.7093080874
0.709306101
0.7093081321
0.7093082366
0.7093080846
0.7093061489
0.7093062649
0.7092743638
0.7093080813
0.7093303513
0.7093092509
0.7093060737
0.7093089824
0.7092786734
0.7093081327
0.709309133
0.7093080907
0.7093080913
0.7093081308
0.709308132
0.7093091654
0.709308131
0.7093274082
0.7093092076
0.7093081327
0.70930812
0.7093081591
0.7093096782
0.7093442755
0.7092627382
0.70930821
0.7092704752
0.7093080827
0.7093066048
0.709308156
0.709306601
0.7093081529
0.7093065371
0.7093064676
0.7093081311
0.7093080969
0.709275953
0.7092728903
0.7093059895
0.7093081312
0.7093081114
0.7093081324
0.7093077875
0.709308131
0.7093080946
0.7093078523
0.7093081308
0.7093078692
0.7093081308
0.7093078773
0.7093033789
0.7093081312
0.7093034486
0.7093081244
0.7093081319
0.7093034924
0.7093081319
0.7093032
0.7093081319
0.7093027581
0.7093078041
0.7093034166
0.7093042285
0.7093147056
0.7093070257
0.7093081369
0.7093077051
0.7093081349
0.7093081178
0.7093082513
0.7093081321
0.70930813
0.7093081299
0.7093081321
0.7093081321
0.70930818
0.7093081321
0.7093081321
0.7093081321
0.7093104859
0.7093080805
0.7093081317
0.7093095117
0.7093081321
0.7093099408
0.709309449
0.7093240576
0.709307806
0.7093071671
0.7093064763
0.7093095108
0.7093080822
0.7093060371
0.709308132
0.7093080749
0.7093081321
0.7093081311
0.7093081321
0.709308131
0.7093081321
0.7093081309
0.7093081321
0.7093081319
0.7093080829
0.7093081321
0.7093081309
0.7093080854
0.7093080904
0.7093081312
0.70930637
0.7093081253
0.709308132
0.7093081321
0.7093081308
0.7093080816
0.709308132
0.7093081321
0.709308132
0.7093081321
0.7093081308
0.7093081321
0.7093081321
0.7093081321
0.7093081321
0.7093081319
0.7093080793
0.7093081259
0.7093081308
0.709308132
0.7093081321
0.7093081321
0.7093081321
0.7093081321
0.7093081308
0.7093081321
0.7093081321
0.7093080814
0.709308132
0.7093081321
0.7093080825
0.7093081308
0.7093081299
0.7093081321
0.7093081338
0.7093081321
0.7093081321
0.7093081338
0.7093081345
0.7093081321
0.7093081321
0.709308132
0.7093081321
0.7093081322
0.7093081321
0.7093081311
0.7093081327
0.7093081573
0.7093081591
0.7093081309
0.7093081312
0.709308132
0.7093080951
0.7093081308
0.7093081321
0.7093081321
0.709308132
0.7093081309
0.7093081334
0.7093081341
0.7093081321
0.7093081326
0.7093081312
0.7093080966
0.7093081321
0.7093081327
0.709308132
0.7093081579
0.7093081585
0.7093081321
0.709308132
0.7093081328
0.7093081321
0.7093080819
0.7093081321
0.7093080924
0.709308132
0.7093081321
0.7093081313
0.7093081321
0.7093081321
0.7093081321
0.7093081321
0.7093080923
0.709308132
0.709308132
0.7093080912
0.7093081238
0.7093081321
0.7093081251
0.7093081319
0.709308132
0.7093081319
0.7093081257
0.709308132
0.7093081261
0.7093081321
0.7093081265
0.709308132
0.7093080886
0.7093081321
0.709308108
0.7093081321
0.7093081317
0.7093081366
0.709308132
0.7093081327
0.7093081321
0.7093081321
0.7093081321
0.709308133
0.7093081345
0.7093081332
0.7093081348
0.7093081319
0.7093081338
0.7093081321
0.7093081947
0.7093081984
0.709308132
0.7093081321
0.7093081308
0.709308132
0.7093002627
0.7093081314
0.7093080866
0.7093080598
0.7093081127
0.7093081321
0.709308132
0.7093081321
0.7093081321
0.7093081321
0.709308132
0.7093081321
0.7093081321
0.7093081321
0.7093081321
0.7093081321
0.709308132
0.7093081321
0.7093081321
0.7093081321
0.709308132
0.7093081321
0.7093081321
0.709308132
0.7093081321
0.7093081321
0.7093081321
0.709308132
0.7093081321
0.7093081321
0.7093081321
0.7093081321
0.7093081321
0.7093081321
0.7093081321
0.7093081321
0.7093081321
0.7093081321
0.7093081321
0.7093081321
0.7093081321
0.7093081321
0.7093081321
0.7093081321
0.709308132
0.7093081321
0.709308132
0.7093081309
0.7093081321
0.709308132
0.7093081321
0.7093081321
0.7093081321
0.7093081321
0.7093081322
0.7093081321
0.7093081324
0.7093081321
0.7093081321
0.7093081321
0.7093081321
0.7093081321
0.7093081321
0.7093081321
0.7093081321
0.7093081321
0.7093081321
0.7093081321
0.7093081321
0.7093081321
0.7093081321
0.7093081321
0.7093081307
0.7093080675
0.7093081321
0.7093081321
0.7093081321
0.7093081321
0.7093081321
0.7093081321
0.7093081321
0.7093081321
0.7093081321
0.7093081321
0.7093081321
0.7093081334
0.7093081321
0.709308132
0.709308132
0.7093081321
0.7093081321
0.7093081321
0.709308132
0.7093081321
0.7093081321
0.7093081321
0.7093081321
0.7093081321
0.7093081321
0.7093081321
0.7093081321
0.7093081321
0.7093081321
0.7093081321
0.7093081321
0.7093081321
0.7093081321
0.7093081321
0.7093081321
0.7093081321
0.7093081321
0.7093081321
0.7093081321
0.7093081321
0.7093081321
0.7093081321
0.7093081321
0.7093081321
0.7093081321
0.7093081321
0.709308132
0.7093081321
0.7093081321
0.7093081321
0.7093081321
0.7093081321
0.709308132
0.7093081321
0.7093081321
0.7093081321
0.7093081321
0.7093081321
0.7093081321
0.7093081321
0.7093081321
0.7093081321
0.7093081321
0.7093081321
0.7093081321
0.7093081321
0.7093081321
0.7093081321
0.7093081321
0.7093081321
0.7093081321
0.7093081321
0.7093081321
0.7093081321
0.7093081321
0.7093081321
0.7093081321
0.7093081321
0.7093081321
0.7093081321
0.7093081321
0.7093081321
0.7093081321
0.7093081321
0.7093081321
0.7093081321
0.7093081321
0.7093081321
0.7093081321
0.7093081321
0.7093081321
0.7093081321
0.7093081321
0.7093081321
0.7093081321
0.7093081321
0.7093081321
0.7093081321
0.7093081321
0.7093081321
0.7093081321
0.7093081321
0.7093081321
0.7093081321
0.7093081321
0.7093081321
0.7093081321
0.7093081321
0.7093081321
0.7093081321
0.7093081321
0.7093081321
0.7093081321
0.7093081321
0.7093081321
0.7093081321
0.7093081321
0.7093081321
0.7093081321
0.7093081321
0.7093081321
0.7093081321
0.7093081321
0.7093081321
0.7093081321
0.7093081321
0.7093081321
0.7093081321
0.7093081321
0.7093081321
0.7093081321
0.7093081321
0.7093081321
0.7093081321
0.709308132
0.7093081321
0.7093081321
0.709308132
0.7093081321
0.7093081321
0.7093081321
0.7093081321
0.7093081321
0.7093081321
0.7093081321
0.7093081321
0.7093081321
0.7093081321
0.7093081321
0.7093081321
0.7093081321
0.7093081321
0.7093081321
0.7093081321
0.7093081321
0.7093081321
0.7093081321
0.7093081321
0.7093081321
0.7093081321
0.7093081321
0.7093081321
0.7093081321
0.7093081321
0.7093081321
0.7093081321
0.7093081321
0.7093081321
0.7093081321
0.7093081321
0.7093081321
0.7093081321
0.7093081321
0.7093081321
0.7093081321
0.7093081321
0.7093081321
0.7093081321
0.7093081321
0.7093081321
0.7093081321
0.7093081321
0.7093081321
0.7093081321
0.7093081321
0.7093081321
0.7093081321
0.7093081321
0.7093081321
0.7093081321
0.7093081321
0.7093081321
0.7093081321
0.7093081321
0.7093081321
0.7093081321
0.7093081321
0.7093081321
0.7093081321
0.7093081321
0.7093081321
0.7093081321
0.7093081321
0.7093081321
0.7093081321
0.7093081321
0.7093081321
0.7093081321
0.7093081321
0.7093081321
0.7093081321
0.7093081321
0.7093081321
0.7093081321
0.7093081321
0.7093081321
SCALARS mach float 1
LOOKUP_TABLE default
0.09851943134
0.3785355577
0.1126867131
0.5491797188
0.09593037939
0.1221737364
0.1199347147
0.1001007931
0.4240164904
0.4385172113
0.1212122671
0.1195046825
0.4572189487
0.4567789631
0.1198768036
0.1228669164
0.4575017594
0.45675454
0.4812437425
0.3789188329
0.1109902927
0.1219395186
0.1001032046
0.1001033141
0.1001033023
0.1001007669
0.4516571296
0.1001007705
0.4462998447
0.1004336834
0.1001007765
0.09996586074
0.09870859773
0.07442965538
0.4535750212
0.09888814724
0.1225333119
0.1000925102
0.1223992244
0.09994410697
0.4564752206
0.4549713073
0.1202220463
0.1001007679
0.4576138481
0.1001007859
0.1196788011
0.4237455126
0.4388417006
0.09435933931
0.1000727239
0.09266524225
0.09524990726
0.09752551961
0.09998333126
0.09678724245
0.08053994106
0.08026377273
0.1000486837
0.09357161694
0.0748447947
0.07410072089
0.4551074965
0.1258765796
0.1287464223
0.4235636448
0.4383539125
0.1211950163
0.1216367407
0.4473957637
0.122510606
0.09565203907
0.1227000144
0.4575070812
0.1222193609
0.4581588209
0.4441316399
0.1259726717
0.1195820607
0.1999249479
0.1989243059
0.198561588
0.1280519665
0.4518792835
0.1280989421
0.4467493141
0.1184049789
0.1282628023
0.2075438425
0.5929735118
0.1001150722
0.1372115475
0.1197875539
0.1182439089
0.1281502618
0.4526332458
0.128625226
0.1179413003
0.4240344484
0.08275944796
0.1206697781
0.1001204226
0.07428513488
0.1003616468
0.09454329131
0.07431602846
0.09310532234
0.09310996886
0.0935882024
0.07664558001
0.07735336742
0.07858277313
0.09397482993
0.09486520447
0.08221209262
0.09941954127
0.09769717605
0.09382527063
0.08371980599
0.1001209468
0.09816996719
0.1004773394
0.4580060228
0.48356685
0.1001152665
0.4362561857
0.09737555215
0.1001139917
0.1368348138
0.07446869598
0.1226367624
0.09230618426
0.1225681687
0.07510138876
0.07619702392
0.1199492551
0.07604353052
0.09572984947
0.07450441533
0.4196268292
0.1173763551
0.1191231503
0.1001033241
0.1001033207
0.1001033306
0.100103314
0.1001007738
0.1197846199
0.1001007731
0.07354696193
0.1001033193
0.1001154981
0.4566214218
0.1225345983
0.1224091297
0.07650404781
0.1000999587
0.1001130784
0.4617151584
0.09965009161
0.1000563511
0.1340197042
0.1003553945
0.09996539456
0.1001010483
0.4576706768
0.4470934967
0.1229123873
0.1003844886
0.1003927075
0.1000143752
0.100100772
0.100347197
0.1004031263
0.4562888775
0.1003632725
0.1000999501
0.1002694819
0.1001000335
0.1001026563
0.1001121673
0.1001000335
0.1001033465
0.1000999586
0.1001032273
0.1000973963
0.1001009451
0.451554646
0.1194122428
0.07383758377
0.09336647978
0.1001006437
0.4558875783
0.1001204263
0.09931392972
0.1001000326
0.1001215095
0.1001000308
0.1001181446
0.1201159839
0.1001000319
0.1202969932
0.1231251285
0.1001104576
0.1000999584
0.4556203763
0.1000971779
0.4284515372
0.1003981884
0.1161487237
0.1001129826
0.1004454616
0.1003122037
0.100060357
0.09967637575
0.1001804288
0.1001019224
0.09935155571
0.09979781111
0.09926823626
0.09949461691
0.09938371267
0.1000808719
0.09903413295
0.09874928892
0.0976119206
0.1000875618
0.09185878659
0.1000999493
0.09552372737
0.1000999217
0.09493149518
0.09996900082
0.09881509708
0.100101648
0.09710438913
0.1000670094
0.1000998346
0.09401846293
0.09572509789
0.1000449858
0.07625892824
0.09505454105
0.0864253938
0.07541352681
0.09303553972
0.1000320343
0.09368722204
0.08257522809
0.4192328317
0.1159381374
0.1173732949
0.1987734487
0.198693942
0.1989405449
0.1986556921
0.1281663461
0.1281418478
0.4553006684
0.1986921228
0.4573250752
0.4579272304
0.08718302541
0.1204254601
0.1001134854
0.1232871661
0.1001146423
0.4561068663
0.1001155819
0.1192243868
0.100118499
0.09631331346
0.4582407181
0.2067917794
0.1326331529
0.4552546858
0.446899134
0.1213277481
0.1003590981
0.100331766
0.1001181999
0.1281162947
0.1002431549
0.1003423689
0.4480176374
0.1002712715
0.10009995
0.1003834946
0.1033110958
0.1019540625
0.1001089111
0.103378894
0.1993549964
0.1004512541
0.2004880924
0.1036226701
0.1328894679
0.08358753336
0.09492836641
0.08036901865
0.4866153975
0.1000684063
0.4542742107
0.1032805658
0.1003925967
0.103244408
0.100100694
0.1214425067
0.1033719988
0.122160215
0.1226867815
0.1001116761
0.1004442537
0.4543555119
0.1019541234
0.4287413006
0.1003629063
0.1179058842
0.1001137387
0.1181907627
0.1003676702
0.09418045303
0.1001208204
0.09332659989
0.1003577656